# vtk DataFile Version 2.0
sampleSurface
ASCII
DATASET POLYDATA
POINTS 22238 float
-0.0759496 0 -0.016272 -0.0801798 0 -0.0125348 -0.0818345 0 -0.0180453 -0.086997 0
-0.0189531 -0.0886285 0 -0.0137738 -0.0986804 0 -0.0154177 -0.0990586 8.67362e-19 -0.019469
-0.0987498 0 -0.0229307 -0.10251 0 -0.0193177 0.156071 0 0.03163 0.160128
0 0.027637 0.160269 8.67362e-19 0.0319311 0.160168 0 0.0358162 0.164212 0
0.0315376 -0.167313 -1.30104e-18 -0.0372618 -0.171713 4.33681e-19 -0.0328801 -0.17313 -1.30104e-18 -0.03712
-0.17831 -8.67362e-19 -0.0419082 -0.179588 4.33681e-19 -0.0377659 -0.18062 0 -0.0334666 -0.181174
4.33681e-19 -0.0411754 -0.180797 -8.67362e-19 -0.0447601 -0.183563 0 -0.0416301 -0.184665 8.67362e-19
-0.0366363 0.192075 0 0.0404984 0.192558 0 0.0399856 0.192709 -1.19262e-18 0.0405236
0.19988 0 0.0378965 0.199059 0 0.0420645 -0.200181 1.30104e-18 -0.0427786 -0.203488
0 -0.0391938 0.205097 0 0.0384339 0.205183 0 0.0414944 -0.204607 0
-0.0486006 0.205299 0 0.0457362 -0.205716 4.33681e-19 -0.0441846 -0.180639 0 -0.114662
0.211387 0 0.0432967 0.211896 0 0.0408855 -0.211753 2.1684e-19 -0.0429131 -0.184831
0 -0.111914 -0.211543 -6.50521e-19 -0.0451321 -0.183709 0 -0.1177 -0.185634 0
-0.114779 -0.213654 0 -0.0449474 -0.213259 -6.50521e-19 -0.0478512 -0.194589 0 -0.101253
0.215313 -8.67362e-19 0.0429458 -0.189371 0 -0.112926 0.215541 0 0.0465626 -0.199087
0 -0.0957723 -0.201636 0 -0.0908613 0.216504 1.0842e-19 0.046707 -0.193912 0
-0.107042 -0.1888 0 -0.116909 -0.192238 0 -0.112256 -0.19768 0 -0.105624
-0.203189 0 -0.095115 -0.199986 -8.67362e-19 -0.101942 -0.202014 0 -0.101226 -0.205341
0 -0.0947909 0.225228 4.33681e-19 0.0435332 0.224462 0 0.0476253 0.224391 -1.0842e-18
0.0526514 -0.12155 0 -0.195909 -0.11766 4.33681e-19 -0.199464 0.226353 -8.67362e-19 0.0515387
0.226548 2.1684e-19 0.0548237 -0.113274 4.33681e-19 -0.204788 0.229357 0 0.0466058 0.228645
2.1684e-19 0.0522271 -0.124758 0 -0.198677 -0.121633 0 -0.20085 -0.109187 0
-0.208337 -0.119326 -2.1684e-19 -0.20395 -0.117114 0 -0.206574 -0.115222 0 -0.208465
-0.112622 4.33681e-19 -0.211747 -0.213946 -8.67362e-19 -0.124578 -0.217702 4.33681e-19 -0.120614 -0.213146
0 -0.131516 -0.217851 0 -0.124725 -0.215401 4.33681e-19 -0.130942 0.24627 4.33681e-19
0.0540565 -0.214975 0 -0.133555 -0.223636 -4.33681e-19 -0.119206 -0.222925 -4.33681e-19 -0.12208
0.251136 8.67362e-19 0.049653 0.250867 4.33681e-19 0.0543864 -0.226245 0 -0.121382 0.259398
8.67362e-19 0.0511341 0.258549 -4.33681e-19 0.0553658 -0.126923 8.67362e-19 -0.232222 -0.129471 -2.1684e-19
-0.231524 -0.128591 4.33681e-19 -0.234192 0.263448 0 0.0535891 -0.268864 0 -0.0103095
-0.273177 8.67362e-19 -0.0088316 -0.273607 0 -0.0125036 -0.27814 4.33681e-19 -0.006503 -0.279081
4.33681e-19 -0.00444967 -0.27912 0 0.000330643 -0.28357 -4.33681e-19 0.00148877 -0.283819 0
-0.00405313 -0.284517 -4.33681e-19 -0.000603923 -0.289483 -1.0842e-19 0.00573934 -0.2904 0 0.00184859
-0.290401 1.0842e-19 0.00178372 -0.290459 0 0.0018405 -0.29075 -1.0842e-19 0.00635915 -0.290781
0 0.00723505 -0.291706 8.67362e-19 0.00636432 -0.0387295 8.67362e-19 -0.337524 0.0844836 0
-0.329813 0.0845251 7.04731e-19 -0.329913 -0.328774 -3.25261e-19 -0.0893431 -0.329018 1.0842e-19 -0.0891829
-0.0275617 -4.33681e-19 -0.339779 -0.329198 1.6263e-19 -0.0890484 -0.0392238 1.73472e-18 -0.341289 0.217808
4.33681e-19 0.266462 -0.291133 0 -0.183769 0.0900713 -4.33681e-19 0.332411 0.270539 0
0.213121 0.333842 -2.1684e-19 -0.0851677 0.143385 8.67362e-19 -0.313314 0.313684 0 -0.142601
-0.195456 0 0.283837 -0.332302 -8.67362e-19 0.0917895 0.344789 0 0.00273856 -0.212433
0 -0.271686 -0.283179 -4.33681e-19 0.196925 0.242671 5.14996e-19 -0.24513 0.242815 0
-0.244997 -0.316079 -4.33681e-19 0.13819 0.344977 1.19262e-18 0.00250281 0.227026 4.33681e-19 0.259765
0.334346 0 -0.0850488 -0.325471 -4.33681e-19 0.114413 0.242842 0 -0.245111 -0.0433355
4.33681e-19 -0.342471 -0.00352352 4.33681e-19 -0.345185 0.263992 4.33681e-19 0.222544 -0.0271571 0
-0.344299 0.090384 0 0.333405 0.223246 -4.33681e-19 0.26361 0.105943 8.67362e-19 0.32885
0.152041 -4.33681e-19 0.310299 0.135241 4.33681e-19 0.318062 0.089116 1.0842e-19 0.334036 0.267757
8.67362e-19 0.218777 -0.29499 -8.67362e-19 -0.180459 0.214243 0 0.271465 0.160591 4.33681e-19
-0.306313 0.234473 0 -0.254271 0.275272 4.33681e-19 0.209452 -0.1724 0 0.299911
-0.191436 4.33681e-19 0.288157 0.330652 -4.33681e-19 -0.101854 -0.342257 0 -0.0507284 0.306677
0 -0.160282 -0.297861 -4.33681e-19 -0.176206 0.298222 0 -0.175681 -0.0444166 0
-0.343297 -0.176067 -2.1684e-19 -0.298038 0.244149 -1.35525e-20 -0.245448 -0.113509 4.33681e-19 0.327074
-0.278581 4.33681e-19 -0.205602 0.329489 4.33681e-19 0.106507 -0.153981 0 0.310247 0.300228
2.03288e-19 0.172893 0.0910959 0 0.334267 -0.309103 4.33681e-19 0.156535 -0.31939 0
0.134346 0.300185 -3.65918e-19 0.173065 0.300246 -2.71051e-20 0.172969 -0.174371 -4.33681e-19 -0.299435
-0.301099 -2.1684e-19 0.17157 0.255576 -4.33681e-19 -0.234136 0.290428 0 0.189196 0.143397
0 0.315568 -0.0903321 0 0.334719 0.246106 6.77626e-21 -0.244202 0.110996 -4.33681e-19
0.328472 0.246146 0 -0.244219 0.246185 -4.87891e-19 -0.24418 0.0910448 0 0.334599
0.101986 -8.67362e-19 0.33145 0.0914611 -1.0842e-19 0.334545 -0.313877 -8.67362e-19 0.147568 -0.267055
-8.67362e-19 0.221312 0.139682 0 -0.317481 -0.209154 -4.33681e-19 -0.276752 -0.150258 -2.1684e-19
0.312672 -0.0950638 4.33681e-19 0.333664 0.205712 -8.67362e-19 0.279399 -0.288064 0 0.193395
-0.318145 0 -0.138488 -0.277303 0 0.20859 0.192305 -4.33681e-19 -0.288852 -0.145749
4.33681e-19 0.314921 0.246295 6.77626e-21 -0.24446 0.283206 -2.1684e-19 0.200597 -0.20037 4.33681e-19
-0.28339 0.180613 0 0.296383 -0.280271 -4.33681e-19 0.204735 0.147977 -8.67362e-19 0.313984
-0.137429 8.67362e-19 -0.318751 -0.182698 4.33681e-19 0.295151 0.217981 0 0.270165 0.135151
8.67362e-19 -0.319751 0.16118 0 0.307468 -0.311599 0 0.153049 0.222509 -4.33681e-19
-0.26649 -0.29462 4.33681e-19 0.183687 -0.195105 0 0.287216 0.119203 0 0.326136
0.183992 0 -0.294486 0.301479 -2.1684e-19 0.172326 0.308312 0 0.159811 0.274187
1.73472e-18 0.213115 0.29577 0 -0.182004 0.267042 -4.33681e-19 -0.222026 0.28632 -4.33681e-19
0.196562 0.188457 4.33681e-19 -0.291765 -0.0239675 0 -0.346525 0.338671 -8.67362e-19 -0.0771956
0.274547 0 -0.212892 -0.126213 -2.1684e-19 -0.323685 0.213518 4.33681e-19 -0.274067 0.320379
8.67362e-19 -0.134399 0.125333 0 -0.324037 -0.110241 0 0.329488 0.318421 -4.33681e-19
-0.139076 0.20938 0 0.277307 0.28091 -4.33681e-19 0.20458 -0.14591 0 -0.315404
-0.174954 -2.71051e-19 -0.300306 0.109963 -8.67362e-19 0.329711 -0.186635 -4.33681e-19 0.293211 -0.274801
4.33681e-19 0.212827 -0.271126 -4.33681e-19 0.217562 0.325031 -4.33681e-19 -0.12331 -0.203416 4.33681e-19
0.281912 -0.286697 0 0.196645 -0.174985 0 -0.300414 -0.313706 -2.1684e-19 -0.149865
-0.0947423 4.33681e-19 0.334517 0.302174 2.1684e-19 0.172094 0.324287 2.1684e-19 -0.125579 -0.170577
2.1684e-19 0.303047 -0.191527 0 -0.29029 -0.172479 -8.67362e-19 0.302015 -0.220283 0
-0.269147 -0.344524 -4.33681e-19 -0.0478141 0.294546 0 0.185004 -0.175934 0 -0.300056
-0.302414 -8.67362e-19 0.17186 0.231764 4.33681e-19 -0.259383 -0.303015 0 0.170857 0.292631
-8.67362e-19 0.188125 -0.144051 6.50521e-19 -0.31667 -0.0381626 4.33681e-19 0.3458 0.226297 0
-0.26426 -0.212379 0 -0.275578 -0.347928 0 0.000630538 -0.246218 4.33681e-19 -0.245887
-0.204443 -4.33681e-19 -0.281585 -0.317947 -1.30104e-18 -0.141527 -0.283486 -4.33681e-19 0.201938 -0.199883
8.67362e-19 0.284946 -0.342859 -4.33681e-19 -0.059975 0.173028 2.74439e-19 0.302018 0.17303 8.47033e-22
0.302025 0.173021 0 0.30203 -0.129061 2.1684e-19 -0.323274 -0.316396 0 -0.145141
-0.318381 2.1684e-19 -0.140767 -0.179094 4.33681e-19 -0.298515 0.31928 0 0.138736 -0.292729
-4.33681e-19 0.188413 0.273061 -4.33681e-19 0.21597 0.220981 -4.33681e-19 0.26904 -0.175517 0
-0.30068 -0.175259 -2.60886e-19 0.300841 -0.175255 0 0.300852 -0.0996192 4.33681e-19 -0.333738
0.336988 -6.50521e-19 -0.0880153 -0.128341 4.33681e-19 -0.323862 0.325139 0 -0.125128 -0.136761
-3.25261e-19 0.320428 0.203656 0 -0.28269 -0.0881559 4.33681e-19 0.337078 -0.248354 -4.33681e-19
-0.244364 -0.145591 -6.50521e-19 -0.316562 -0.345253 -1.69407e-21 0.0470233 -0.345264 -1.69407e-21 0.047011
-0.345265 -1.2282e-18 0.0470229 -0.345263 0 0.0470433 -0.345268 -1.69407e-21 0.0470176 -0.105126
-4.33681e-19 -0.332247 -0.31971 -2.1684e-19 -0.13866 -0.348462 -4.33681e-19 0.00405013 0.323956 0
-0.128483 -0.277197 0 -0.211233 0.307563 8.67362e-19 0.163934 -0.216494 0 -0.273137
-0.334901 -1.30104e-18 0.0965158 -0.0372479 0 0.346537 -0.295909 1.73472e-18 -0.184175 -0.12064
2.1684e-19 -0.327007 0.260426 -8.67362e-19 -0.231686 -0.12693 2.1684e-19 -0.324642 -0.327896 -1.0842e-19
-0.118312 0.124398 0 -0.325637 0.0434384 -1.0842e-19 0.345912 0.265365 -4.33681e-19 -0.226107
-0.090571 0 0.336674 0.325943 2.1684e-19 -0.123753 -0.328417 0 -0.117048 -0.135918
1.0842e-19 0.321069 0.17685 -2.1684e-19 -0.300474 -0.118471 2.1684e-19 -0.327916 0.0427338 -1.0842e-19
0.346057 0.337015 0 -0.089467 -0.345014 -2.1684e-18 -0.0505396 0.283421 -4.33681e-19 -0.203131
-0.314491 2.1684e-19 -0.150616 0.348701 2.1684e-19 0.000927602 0.341291 0 0.0715246 0.316346
-1.0842e-19 0.14673 0.300162 -4.33681e-19 -0.17751 -0.336389 0 0.0919646 -0.0393961 2.1684e-19
0.346505 -0.317956 -4.33681e-19 0.143273 -0.153913 4.33681e-19 0.312946 0.10297 -4.33681e-19 -0.3332
-0.136551 0 0.320907 -0.0381103 1.0842e-18 0.346669 0.125346 -2.1684e-19 -0.325455 0.302028
0 -0.174402 0.0433648 -1.0842e-18 0.346063 0.282843 -4.33681e-19 0.204086 -0.293764 0
-0.188029 0.312335 0 0.155288 -0.278992 0 -0.209388 0.0778961 0 -0.340018
0.341809 0 0.0696207 0.31688 1.0842e-19 0.145852 -0.186081 -4.33681e-19 0.295085 -0.336204
-4.33681e-19 0.0931152 0.279249 -4.33681e-19 -0.209112 -0.328273 0 -0.118098 -0.302472 4.33681e-19
-0.173858 -0.0377533 1.0842e-19 0.346836 0.209819 0 -0.278741 0.175769 2.1684e-19 -0.301373
0.199389 -8.67362e-19 -0.286308 0.208816 -8.67362e-19 0.279509 -0.147635 -2.1684e-19 0.316123 -0.157422
[...]
POINT_DATA 22238
FIELD attributes 2
p 1 22238 float
15.0807 21.0955 19.3547 27.2565 24.9882 7.41359 7.8131 6.59813 -1.33292 -2.25243 2.42291
2.79044 6.66145 2.40668 7.25491 12.8979 9.96258 -0.305503 -11.4561 -9.96278 -6.13069
-4.31985 -10.8058 -15.9906 -9.15664 -8.30726 -8.08937 -2.33396 -5.82954 12.5069 15.4753
6.58127 6.55838 12.4419 6.20162 14.2385 3.1513 15.0785 13.2719 -12.5411 5.54576
-11.5097 9.47846 6.16072 -14.2487 -15.8643 17.5047 13.2758 6.82743 15.493 10.823
3.88933 15.5015 13.3267 4.17262 -6.14857 -8.26736 3.06387 1.05945 -4.76302 -5.26488
13.0499 14.4512 6.11459 22.9333 22.8371 7.089 7.85823 20.0713 7.28603 8.16408
4.7756 17.9738 8.54781 1.28871 0.105046 11.4596 12.3363 31.0613 32.5782 33.1355
33.8786 30.5975 -12.7374 31.0921 9.90779 11.0001 -6.3772 -5.02838 5.06259 8.47259
8.08436 18.822 14.4229 16.1538 9.83459 23.823 27.2712 25.1168 25.9866 37.6879
31.4278 38.4734 22.7174 29.6392 12.9061 -1.2967 -1.34996 -1.48717 7.01899 6.50685
3.48863 -2.93974 -18.6718 -18.3726 27.6796 30.2779 17.3292 30.2951 -5.053 -15.5277
1.14126 -12.7051 -32.3044 -57.7312 -8.79236 -29.3944 -4.46423 6.55599 -25.6719 -4.17187
13.5315 -10.6927 -10.5251 11.9722 -25.0497 -8.10647 -52.772 11.7131 -10.2754 -16.596
-13.6297 -28.267 16.3473 -12.7277 -19.1932 -8.58238 -12.2708 -16.5356 -14.4858 -23.5919
7.78794 -21.717 -19.7959 -18.3421 -31.2342 7.52946 5.46112 -29.8383 28.6148 -31.6201
5.99308 -26.6952 -11.7475 7.86932 -8.05585 2.62274 5.22142 -26.5368 -1.98828 -20.75
11.5931 29.9946 16.8057 -21.0384 -20.435 12.0308 24.9282 -17.363 -52.7602 -9.14104
3.15984 -9.281 -9.69442 -9.18444 -9.27001 11.6225 5.7881 11.2562 39.3759 10.7217
-15.6609 8.15897 11.768 -9.23866 -20.211 22.3344 41.3722 30.8379 -12.0136 16.3472
-8.43778 -31.6383 12.7896 -14.8012 38.9118 -16.6525 15.3305 9.82606 -12.1594 -9.67284
-7.76184 37.3045 -24.3267 30.3285 2.08653 -6.27429 -16.3942 -19.9217 -18.1276 -19.2774
-23.9292 -22.0192 -40.3534 -18.3143 10.3653 -70.7843 -13.9943 3.26526 -18.1868 -27.8816
-23.9822 6.03269 -29.4425 -19.2152 -25.402 5.44278 16.5616 -10.2717 10.1381 31.082
24.1248 -27.9029 2.08049 21.6036 16.7755 52.234 -7.42299 -17.6944 -31.7798 11.2541
6.25865 12.5216 2.6435 38.3492 -46.0483 12.1164 31.9733 -21.869 31.8926 -34.726
6.98268 3.26761 -22.0074 3.55097 31.0112 24.7005 13.6608 42.3313 40.5284 3.79774
37.7891 -9.63131 -9.62696 -9.62529 5.52094 58.3867 45.0119 10.8985 -18.2419 27.4881
-23.8207 -6.23259 16.4396 9.26396 9.28304 1.47011 -40.6316 4.8627 -28.8071 7.97822
-29.1163 3.63085 21.0343 7.78215 61.5933 61.6405 61.6858 61.7177 61.7144 -3.63219
44.7818 37.4951 -29.801 12.6975 -24.8886 6.39642 26.1228 4.00528 19.9375 7.63099
-19.323 4.65417 46.468 -24.5359 -10.0084 -23.2928 3.70526 -22.6346 49.589 6.14023
-24.9976 8.71074 -10.2934 -36.1905 42.9583 -31.8759 63.605 -29.2318 -31.48 -29.4647
-25.1911 22.0755 0.797395 41.4768 1.30133 -16.6258 7.4894 3.3992 -23.0149 -25.8888
-9.89481 -15.6763 31.343 -12.3908 14.8083 -59.6607 -27.3264 -29.1511 9.62904 26.3064
-11.1736 49.3687 10.3365 4.49436 -18.6072 -25.2839 -31.0236 -14.0417 11.8274 2.12734
7.16119 26.9247 45.6727 -15.9709 20.1425 -16.5203 -24.987 -25.3087 24.94 -20.4678
-10.5825 -21.6375 -27.5131 14.9731 40.6306 0.881185 48.2954 -36.2153 12.773 -21.8509
27.3948 22.4025 -10.3793 -28.4194 40.4441 -12.9132 -21.8923 44.6786 -17.6833 53.0753
11.6024 25.7831 -0.196655 -6.90334 45.407 41.1436 64.9061 15.3155 24.9425 -29.9339
39.9153 -14.3381 -45.3561 5.49728 46.2218 -19.3893 -26.4452 -23.5568 39.5623 -21.3228
18.4907 -13.0362 -29.3919 43.6407 5.3179 38.4711 30.8348 32.0907 32.0087 34.607
-23.087 -10.9841 -10.5495 10.4347 2.26046 7.99947 -13.7131 9.23017 -4.72979 49.885
49.545 34.7806 46.8816 -21.0434 -18.2846 0.465818 -0.297404 -13.3774 -11.573 -27.4649
20.1164 -13.0676 -17.2635 -46.0722 -21.5472 -35.0134 46.8189 -30.0784 -26.5421 -26.6785
2.88844 -30.4885 -14.7283 -13.7202 -4.14613 -6.9483 -35.3748 10.9817 45.5968 -4.58903
37.4864 -32.3946 28.4932 -19.6117 46.4275 10.98 -22.7894 18.3834 -12.151 4.81781
-6.9047 -9.61916 14.1455 -49.7153 28.6275 54.25 -10.2791 -22.6776 25.2655 -29.5729
-41.489 23.9617 -1.85255 18.6255 -29.0923 -23.5465 -13.3754 46.9576 -22.5779 -16.4537
-31.3474 -6.01326 -54.2565 27.4254 -31.9477 4.47229 -24.5526 4.92578 -11.4516 24.1592
51.1253 20.5845 -33.7788 -7.36645 -21.1204 17.7695 18.9288 -0.353267 -59.621 -22.93
24.2609 -1.87936 22.908 -21.1084 31.227 30.1905 -34.1199 29.5004 -31.2319 -9.32765
-40.7269 -33.3108 -8.74967 47.3703 -33.6896 -25.7496 10.9403 41.6355 -18.9783 19.1798
-27.3371 -18.7227 18.7215 -35.0057 13.5756 -6.78816 -24.6651 -22.1326 23.0074 36.4538
-39.5566 16.2108 6.16318 -5.61082 -42.7924 41.3358 -31.9854 -40.6012 36.2402 19.9835
-12.088 33.82 -11.9747 38.7012 -8.51004 -11.8952 -23.0549 -32.6835 -25.9557 -21.0533
-26.8114 -31.3993 30.4533 39.6944 -20.8956 -33.1089 13.4072 -34.4327 -28.1278 29.3276
-11.494 -29.566 -13.1357 13.993 -25.083 7.39385 -9.2273 -10.9732 -12.5726 41.3907
-24.2685 -15.1452 29.999 -37.5723 -2.32701 -18.1447 42.9432 27.8993 35.6306 11.8072
38.073 -21.8321 -12.6373 -23.7231 -22.8743 39.1964 -18.7663 23.9325 -32.4977 9.81837
-41.096 -16.5729 42.7532 -25.6119 -0.944917 -9.79955 -36.3539 75.4642 -7.7218 -9.68491
-30.5683 -16.5753 -16.3265 54.8704 66.2673 -24.3231 68.2988 -25.6579 39.8408 -8.99976
4.43835 -19.0536 37.7048 -7.22301 11.03 40.3951 9.57982 0.0568891 -30.0494 -45.1878
77.274 -7.54721 15.0587 -11.1697 41.3289 -22.0997 -32.5711 -37.4888 60.4479 77.2476
-42.5126 -12.5843 79.2036 59.7089 -2.73207 79.9874 80.2431 -15.2191 -15.4214 -9.38726
71.7278 -0.866817 -11.1508 80.1698 -11.1541 -11.5088 -24.8544 -2.03733 -19.9594 -2.07949
4.79771 -15.4939 -21.4032 35.4507 -11.2516 73.8109 -37.3342 -23.0308 -15.1186 -12.0345
68.3411 -2.02203 67.8067 -22.9827 25.6006 45.9023 -54.0626 67.5229 -7.1323 40.3773
-21.5991 -14.3832 -15.2657 -21.3611 -12.5243 -35.3818 71.48 -22.879 3.68274 -34.0443
45.1979 4.01434 -13.1771 -14.861 -17.9749 -43.127 -17.2971 6.25389 -15.2203 4.37397
-20.2068 -8.24268 -34.5109 -15.5707 -8.77113 -3.94106 -15.4837 -39.8948 63.8065 -22.6033
63.7551 8.5136 3.15942 -8.37394 22.7319 31.7911 7.29855 72.7293 17.8913 -9.30852
17.6497 -25.5021 21.829 -19.7246 -0.79472 26.6144 -1.86999 27.0614 -32.9353 43.3418
-15.9826 -16.2839 -22.9239 -0.329562 -20.8522 -8.79688 -14.5353 -29.5213 10.2903 18.9564
25.3406 -6.9692 -0.326939 15.3809 7.6491 73.2595 7.9856 -24.0591 -25.4974 41.6176
-23.3821 -7.65917 4.48717 -26.5164 3.79403 56.2708 -34.9714 3.93729 11.8313 -2.89046
8.58606 7.46055 -10.9903 26.9634 10.9227 -18.4868 66.6192 -4.69065 -13.6926 -23.2495
-17.0624 -5.88836 -15.2477 -20.2833 -11.1177 17.3504 45.6763 -11.8091 -17.2747 40.923
-18.1405 47.2649 -17.1513 76.7839 0.521514 45.6529 -20.2262 39.3366 41.2892 13.6182
-20.4997 -11.4868 -12.1064 -4.89474 -9.75713 -22.0971 14.0129 39.8019 39.0794 -20.7446
50.3196 -1.62839 43.5541 1.75691 29.3803 -16.026 -8.07565 -22.7109 50.5632 44.7845
64.2105 -2.03085 -6.50684 -27.5482 -7.58205 34.7045 -21.517 -25.4864 -17.5076 28.4699
-15.9732 53.844 -8.29855 -16.5895 51.5888 -16.1855 -24.1642 -34.0675 -1.55041 -22.1208
-13.0369 1.28682 48.4075 34.293 -11.6322 -32.9791 -10.5962 59.9585 -7.46523 6.31389
-4.28505 -14.534 -5.8639 -4.25386 -6.18454 42.7449 43.5301 -10.7371 11.4813 22.0974
-6.43431 -14.5334 -34.7784 37.0145 -5.90733 31.1194 0.165057 14.3267 7.61714 31.2984
32.8265 30.4131 1.73714 27.7478 -8.6953 8.52637 41.7365 -14.9471 -4.35908 -13.1792
-6.31475 5.0484 14.5608 0.894281 39.241 -7.56362 -6.42096 31.1458 -13.8626 5.28057
13.6476 -12.6849 65.5754 -9.50656 -8.40368 2.25427 -19.2584 -18.6657 2.64471 -17.3356
-11.0408 -26.6478 -21.3272 -24.4556 13.3237 11.8198 39.1944 -13.6302 -11.4724 -21.7792
-18.6835 -19.6587 -20.6635 1.51777 -19.0495 -26.2289 2.81029 -6.25738 8.3943 -18.7727
5.32037 -24.2771 12.9925 -10.5941 -21.5305 1.78566 54.9746 -15.5237 31.7271 -4.43619
5.88954 -5.15427 -18.6687 -9.67214 5.9753 47.1221 5.3848 -9.05848 7.55286 -13.1904
40.9527 7.08753 -15.652 -5.92757 46.1312 48.7638 6.1487 -1.42693 36.7445 -1.36422
11.0259 5.3099 -8.746 23.5834 9.41835 -3.79116 13.1422 6.1097 40.0972 -1.71417
6.61052 7.89191 -3.35062 0.848031 6.84049 10.8649 1.64309 -4.40555 13.7446 8.01449
30.7786 36.7663 7.72902 15.5522 15.7633 -2.19995 3.81954 -9.49101 -1.06462 24.2718
-1.69359 36.4201 -15.8423 42.2797 -7.12591 13.7436 -0.119876 -13.1945 13.8665 -7.03621
35.034 13.0433 8.14304 -4.67145 3.98612 8.20681 9.83196 -2.22311 15.5657 7.22268
-6.94849 9.11702 11.6226 7.17499 12.6959 16.2685 -3.69315 38.5853 4.16814 -3.38041
3.50691 24.1458 13.5281 11.7769 1.309 8.84835 11.7607 5.90722 9.15754 30.9032
2.15376 9.85449 9.83079 13.0684 8.50959 9.55006 8.03908 6.27447 11.6034 5.33524
47.7148 5.38351 31.6026 12.5555 13.2529 9.3359 -4.3776 -4.33776 40.7221 9.87258
-6.46017 9.95963 11.6724 21.4923 -4.37376 11.7402 27.7265 5.68297 -3.98831 10.2027
47.5254 -6.53829 20.9793 24.4462 33.4239 3.17761 14.7317 18.5731 -9.31426 20.7804
-6.25829 11.7008 11.4045 15.3162 5.35271 8.91403 2.28831 9.79294 49.8928 5.34527
-4.06726 8.31829 33.898 34.262 10.6462 39.679 13.6312 2.15381 -6.0443 -4.37564
47.8319 -0.862669 10.5229 3.32212 -2.18313 18.973 -2.08171 19.2635 -2.01654 -6.37179
5.95694 2.64581 42.6736 16.6353 2.52044 2.89974 3.06142 39.7744 39.7731 34.2877
3.44194 0.304356 4.44169 14.7928 46.4652 -3.51985 44.5512 -7.78388 32.627 47.6406
-3.53341 -7.6603 6.85575 -7.26831 -8.27442 -2.33478 -7.1873 -3.85042 18.4792 -2.31886
41.5755 -4.89781 47.6629 14.0527 -5.98199 -3.70407 14.2487 7.64591 0.344339 29.6142
-6.73055 -2.39709 42.1197 -2.29049 4.63105 -5.02314 29.7234 13.6316 19.5886 41.3899
3.18499 5.62781 33.9567 14.0595 6.76014 17.0013 4.24953 -0.2129 1.02275 7.36644
39.7849 11.5865 -4.00853 25.7674 23.1737 -0.347152 24.5015 -4.87186 13.471 -7.09106
3.27978 19.6572 16.3451 38.2973 -3.80428 16.5321 37.0329 -5.75637 17.1033 -8.29605
17.1253 29.7623 -0.284707 17.8023 -1.49811 0.905939 10.6944 6.80423 21.388 6.18422
0.3458 -4.62208 4.17605 9.84829 9.88761 28.9259 14.5352 7.95286 9.71611 10.1405
9.64497 5.3646 23.383 5.78969 35.1715 11.7123 0.292211 5.25329 -3.954 -5.9671
-4.28653 -2.42985 6.76716 -5.53035 5.60352 6.90434 9.03209 5.28233 -2.8027 29.8443
2.91358 4.50642 -1.31024 -2.00789 4.41262 7.95208 35.7636 8.93884 10.4598 4.25561
9.06694 -0.966629 6.45482 -4.49248 25.7361 -2.28431 36.1742 5.60622 2.91729 -2.37922
38.4217 23.613 10.2691 -3.19877 28.0457 10.89 -0.178003 1.8259 -3.9137 6.21425
-4.62814 13.1575 3.78114 15.5027 21.5424 1.04594 -6.23236 6.96853 7.54351 7.29941
21.291 -0.043692 -4.48018 -1.77842 28.9706 -1.80382 6.46701 -12.9996 7.20423 -4.13184
8.40719 -4.52033 12.8752 8.43877 31.0919 9.73377 10.5001 9.70642 24.5874 10.0511
-4.93262 -1.08396 29.815 -6.66876 -0.20254 24.1444 10.7113 -4.70133 8.2189 24.1159
29.3597 0.673424 6.60136 35.3442 36.7877 34.5197 10.3794 7.79775 2.73142 -0.878811
24.6162 36.8247 10.8533 19.5418 37.5387 33.3759 -6.01002 -4.41419 -6.18852 -6.46901
4.1931 34.5027 -3.8718 28.0227 -5.76373 37.9391 -5.84272 -6.18712 27.9189 4.8626
2.3022 -13.1279 21.2026 -4.74565 2.57537 -5.76419 32.0284 -4.22487 2.64312 30.8893
13.8782 11.6616 -3.94498 0.774244 -5.96437 3.56794 15.4291 3.74536 22.1024 1.96155
2.13848 0.609916 20.4498 -4.68616 30.0585 2.06743 14.5246 5.36073 -2.44871 7.69107
3.78638 1.34953 8.98733 -3.97643 6.37315 5.52516 18.5917 12.5677 9.27234 -5.36063
3.00426 21.9815 -0.560021 -2.85543 1.68307 26.3614 -5.3927 4.67822 22.4724 15.2064
-1.65685 28.084 -4.02987 1.63284 9.00045 1.53772 5.41682 -3.89217 -1.03415 -5.23465
6.44001 2.69253 9.63519 22.0876 25.8816 1.31654 -4.99687 -11.2159 6.18577 -1.85908
6.29966 15.512 4.5496 6.93259 -2.28617 18.6557 -3.79168 3.33138 -5.07326 1.12875
17.7399 4.16353 -4.82733 3.55463 3.38446 2.81787 -3.7612 3.33055 27.2396 -11.1965
18.9523 25.1436 1.54833 16.8541 2.39306 3.61444 24.1238 3.52399 5.9464 -4.39713
-5.388 18.7381 5.71163 4.76392 2.14138 5.09423 0.947031 7.37883 6.21955 -3.01088
8.32754 -2.27408 7.95921 2.49846 6.33814 4.66464 4.48782 -0.92002 20.4707 26.0919
0.816655 -4.80561 0.478424 18.832 2.78499 2.78918 24.2351 4.14551 4.13994 8.49684
4.45037 5.96656 10.1503 16.0138 23.1758 -4.28143 -0.00660983 -6.98 20.0517 23.2427
2.40286 -4.29519 -1.7773 -2.21896 16.1435 -4.72949 -1.57839 8.26527 3.49851 -3.92169
15.2528 5.22374 8.46031 -3.57631 6.01423 -1.35114 3.28109 2.79184 -7.12904 11.2249
12.2138 9.4156 3.59224 4.85051 20.0351 4.22824 11.3297 4.046 11.902 19.8227
-1.12061 16.2608 7.25718 9.383 12.7093 -5.28823 14.7281 6.19377 0.533636 -3.31211
3.8078 2.71859 5.53151 23.393 23.0164 0.161434 4.68315 0.73447 2.60004 0.735161
15.7683 17.9065 23.4036 -3.31111 23.018 3.26923 23.0012 12.8891 -4.2906 -4.53964
1.46843 14.2734 -3.82105 7.81679 21.3856 -4.48351 21.7915 -1.69389 -3.10511 -0.245962
5.1365 0.476078 17.6487 12.8198 14.9068 -3.48023 -4.35472 3.87503 1.95095 -5.46374
1.00543 -4.19719 3.90741 0.474819 3.15947 -0.747191 1.05348 19.5376 3.73398 18.0973
20.7074 3.2118 13.3407 0.411594 -1.58336 5.98518 -3.03798 -0.681147 -3.45183 -1.04024
-3.83434 1.11618 2.69793 -4.76247 2.04047 2.40081 -2.78945 13.6878 1.20097 2.31126
2.31686 2.32727 19.2587 15.6355 2.5568 18.1627 -3.3212 1.84121 2.53809 1.2468
3.14913 13.7356 4.31964 15.378 12.6186 3.38352 3.87728 -2.38875 5.04003 2.36594
2.41097 5.57488 -1.89934 14.7371 8.43684 9.58288 -3.51192 13.3062 3.09242 -2.52321
-0.398487 1.99186 14.9176 18.2784 3.42424 16.1058 6.89684 10.2253 18.154 5.71923
9.05344 2.50885 8.10574 -4.92603 2.47577 17.0079 -1.36052 -3.38894 -1.8295 4.38982
-0.0438758 2.96568 -3.07672 9.842 1.06764 11.7824 0.102545 -0.01706 6.71919 2.04331
4.41338 -3.03281 5.19865 10.5572 -0.00206645 1.14988 0.447961 2.09788 3.55714 -4.51313
11.9797 -2.94218 15.5447 5.62223 10.6216 1.77164 1.64372 16.2367 2.25567 0.552413
-1.33717 0.587333 12.6717 4.35636 0.0851742 -0.780811 13.9525 -0.54354 1.44618 18.0496
17.8622 1.53273 4.64384 -2.65387 10.5438 3.61172 0.416659 -2.02815 17.867 17.4829
11.4599 17.6112 -2.74618 -3.66996 -3.62122 -1.0156 -4.62566 10.9562 -3.22137 16.1886
16.8132 -3.79683 14.0373 0.590494 4.56447 -1.03071 15.4352 -1.11791 -3.08539 2.28176
14.3034 -3.48507 7.21758 -0.214145 15.5889 1.27053 6.22912 8.07281 -1.83351 1.60451
1.53647 0.605314 -2.50196 -2.64828 11.5292 7.06324 10.0793 -3.53272 0.614674 -2.55787
2.21724 -3.32318 4.75214 2.99884 8.55756 3.16833 0.630254 14.5435 2.3614 1.83588
3.93381 3.94077 11.0995 4.53221 5.33469 0.0500845 11.2832 0.523607 -2.26573 9.7271
-2.16776 2.45843 8.37452 4.04777 -1.63847 -2.99275 13.0812 -0.367773 8.68473 3.59755
2.9248 2.11173 -3.54999 4.31694 13.3647 0.65157 13.6965 -2.33926 -0.420063 -1.83824
-0.637379 0.60695 9.54803 4.30162 0.962853 0.730241 9.38615 3.84868 2.25016 -2.78875
-0.727329 0.89253 -0.311024 11.8621 1.87945 9.22256 8.75653 2.2555 13.0012 -1.5275
10.7757 8.87023 -1.75998 4.88027 8.96503 4.29005 3.01264 -2.50606 8.47815 13.5656
14.3916 6.20988 -1.16304 13.5664 13.8842 13.5961 12.4083 13.6312 1.22385 3.32405
1.44211 -1.211 11.2859 3.02199 4.62793 8.64598 -1.5448 1.30774 12.2657 1.30817
-2.38182 -0.262377 0.736943 -0.295082 10.9857 -1.42112 6.776 12.0084 -1.57567 2.78655
3.05402 -2.1729 1.66006 -1.94264 -0.783373 10.6926 10.3875 5.08588 -1.5086 3.66842
8.214 1.31049 -0.155331 9.25818 5.91297 -0.537159 0.735344 4.35007 10.276 -1.1075
-0.082183 1.70405 6.63663 -2.49208 6.53497 4.35635 -2.30865 8.93148 1.90177 2.58147
-2.48923 -1.97338 -1.79542 -1.93955 7.582 3.86612 6.39381 5.97341 5.73509 3.81684
-0.763688 2.73903 5.92902 6.99028 -2.32344 2.78015 -0.0816772 0.474219 4.67807 0.0661847
4.5316 -1.5346 6.69588 5.17641 7.48726 1.565 0.978651 -2.07417 -0.127114 3.63232
2.36776 4.62806 4.9338 8.36642 8.50498 6.33397 8.44779 8.44808 5.10564 -1.05118
4.68211 8.06556 -1.36624 1.44558 8.06147 3.08304 5.26034 0.364577 1.20874 4.60804
7.5336 -0.398387 3.05748 -1.82801 0.567411 6.47555 7.08649 -0.3245 7.40479 4.06262
1.82654 -0.569251 6.05491 6.7517 5.54234 2.68175 0.0897019 3.44803 1.53161 5.20527
0.18087 1.78889 2.49862 6.6905 -1.92925 -1.78969 -0.943056 -1.57281 3.96937 0.0165619
-1.95077 2.20583 4.57122 5.89426 -1.5545 3.21245 0.821279 -1.52677 5.29933 4.80805
4.34994 -0.129718 4.54844 5.57533 5.11087 -1.86221 0.940049 -1.24807 3.07122 5.42371
4.5409 5.95543 4.42948 0.527754 1.83949 4.65307 4.2234 -0.0924669 1.08307 -1.7029
0.8967 2.35265 5.0426 -1.25703 6.2869 -0.905461 6.29627 3.87472 -0.653128 6.29902
2.39149 6.07213 -0.221279 2.51024 -0.600332 6.35001 0.249274 1.85012 1.42887 5.7306
-1.51556 3.04004 5.26494 0.0220083 5.55007 4.80214 3.23149 5.60472 -0.257775 -0.5602
1.15996 4.23491 1.25984 4.24594 5.23461 3.38059 0.749301 -0.935049 1.7062 5.40044
-1.3151 4.20763 -1.52555 -1.42098 0.0965741 0.584561 2.49643 4.66399 -1.55347 0.5411
4.6562 -0.235235 -1.25171 -1.21737 3.90266 3.63454 -0.345071 3.25155 0.933801 4.00179
3.66207 -1.50923 0.68193 -1.03342 3.52881 4.69577 2.07332 -0.13982 -0.64674 1.81775
3.23554 2.30481 -1.09185 4.07682 1.27309 -1.41106 1.79039 -0.656252 1.913 -0.643133
-0.786865 1.18542 2.67402 2.90453 -0.142309 4.82304 4.75981 4.69767 0.0519428 4.70513
4.57231 4.42115 0.742562 4.50131 -1.28107 4.48 2.46559 0.732791 -0.533006 3.50809
0.248916 2.89819 -0.862282 -0.136756 4.15135 0.596912 1.43242 1.56531 -1.13497 0.285386
3.79137 -0.433842 1.73622 1.99169 0.849882 1.31158 -1.23608 3.76195 -1.15574 -0.288663
2.09552 -1.26513 -1.03046 -0.990611 2.97956 2.97527 2.94902 2.92138 0.870936 4.12008
-1.2444 2.63956 -0.870418 3.54128 -0.653491 -0.974263 2.35524 2.39562 3.34827 1.04281
1.60271 -1.18212 3.85377 -0.0674483 -0.688762 0.462346 2.22582 0.0175302 0.323829 3.52391
3.82516 3.73947 -0.579094 3.74953 -0.260534 1.20627 -1.0905 0.575662 3.3415 2.50223
3.59259 2.9356 1.95063 -0.498718 1.30241 -0.80562 0.72864 3.39735 1.63141 1.22708
3.36426 0.942615 -0.479182 3.20361 0.776491 0.120713 1.89747 -0.981386 1.63216 -0.312098
0.709869 0.588806 3.08974 -1.02405 -0.96125 2.541 -1.05055 -0.866264 2.08064 -0.824707
2.33792 2.34429 -0.644629 0.109366 2.30314 -1.04094 2.06702 3.13571 0.90413 -0.129895
-0.860477 0.343338 -0.745905 2.79146 1.33829 1.91487 0.272499 -0.13897 -0.999455 -0.337686
0.921284 1.8662 1.26391 0.538875 -0.608786 0.973261 1.78622 3.13322 1.51829 2.17525
3.11211 3.06638 -0.533669 -0.933409 0.672949 2.48638 -0.733505 2.94924 1.58105 -0.463694
-0.502981 1.02798 1.71552 0.690476 0.0135248 2.78258 2.91151 3.01468 1.60508 -0.851527
0.389192 -0.0371526 0.160935 1.33832 -0.318884 2.18713 2.58204 1.84425 -0.223956 0.345714
-0.861928 -0.813096 -0.609711 2.99582 -0.883802 0.764751 -0.740278 0.974909 1.87565 1.20821
-0.700223 1.86301 1.8611 -0.760173 1.90798 -0.878627 1.65959 0.142 0.723424 -0.382796
1.10357 -0.648134 2.36127 0.497155 1.40449 -0.18159 1.55837 0.702804 -0.498276 -0.849611
1.90312 0.474354 -0.542497 1.12169 2.72925 1.44839 2.62709 2.62706 1.55047 -0.496924
2.56743 -0.664153 2.69677 2.13085 -0.801937 0.602781 0.027107 0.851563 -0.483155 0.672048
2.47474 -0.429497 1.28607 -0.135801 0.193762 -0.0571129 0.245946 2.52922 2.3476 -0.282792
-0.741407 0.342225 0.956436 0.747814 1.64038 1.09591 -0.314994 1.89984 1.14279 -0.568998
2.19559 0.532738 0.643176 -0.729309 -0.398 -0.691508 0.453138 1.29398 -0.74716 2.4299
0.051614 -0.672882 -0.635445 0.68923 1.4634 -0.598973 1.39241 0.911199 1.48631 -0.745227
1.31105 2.02705 -0.204137 -0.564097 0.326898 1.24702 1.67632 -0.0699092 0.0719864 -0.725843
1.40222 1.28629 -0.481451 -0.479539 -0.202105 2.58096 1.16631 0.213971 0.523695 -0.599914
1.8487 2.24733 2.25726 0.708849 -0.692397 2.19287 0.752985 0.92479 0.143659 -0.100817
-0.391907 -0.313007 1.04629 2.30998 2.11653 0.569689 0.331041 -0.436256 1.0734 2.56938
1.14153 1.46605 2.01591 -0.648316 0.387899 1.66724 0.901038 -0.525974 -0.299729 -0.398363
1.19057 0.542975 1.89668 0.408925 0.551211 -0.0074358 -0.0211355 2.27747 -0.619605 -0.138745
-0.588977 -0.596787 0.102634 0.21973 -0.635554 -0.544559 0.757552 1.13103 -0.208687 -0.512331
1.76429 -0.636944 1.18104 1.0366 1.02367 -0.241687 1.48936 0.222418 -0.488211 1.27268
1.16404 0.745789 0.812703 0.538486 0.591054 0.994987 -0.454463 2.25904 -0.624973 0.886932
0.45509 -0.422568 -0.540673 0.432905 0.941771 -0.326442 1.62339 0.0748976 0.593415 0.313562