# vtk DataFile Version 2.0
tracks
ASCII
DATASET POLYDATA
POINTS 25045 float
-1.001 -0.05 0.0011 -0.99549 -0.0500011 0.00110424 -0.989981 -0.0500023 0.00110854 -0.984471 -0.0500035
0.0011129 -0.978962 -0.0500047 0.00111731 -0.973452 -0.0500059 0.00112176 -0.966891 -0.0500073 0.00112707
-0.960329 -0.0500087 0.0011324 -0.953767 -0.0500102 0.00113781 -0.947206 -0.0500118 0.00114328 -0.940644
-0.0500134 0.00114882 -0.934083 -0.0500148 0.00115448 -0.927521 -0.0500164 0.00116028 -0.920959 -0.0500181
0.00116617 -0.914397 -0.0500198 0.00117216 -0.907836 -0.0500215 0.00117824 -0.901275 -0.0500233 0.00118437
-0.894715 -0.0500251 0.00119049 -0.888154 -0.0500269 0.00119673 -0.881594 -0.0500289 0.00120307 -0.875033
-0.0500309 0.00120949 -0.868472 -0.0500328 0.00121611 -0.861912 -0.0500349 0.00122286 -0.855351 -0.0500371
0.00122973 -0.84879 -0.0500393 0.00123671 -0.84223 -0.0500417 0.00124381 -0.835672 -0.050044 0.00125101
-0.829114 -0.0500464 0.00125814 -0.822556 -0.0500489 0.00126541 -0.815998 -0.0500516 0.0012728 -0.80944
-0.0500544 0.0012803 -0.802897 -0.0500571 0.00128805 -0.796353 -0.05006 0.00129594 -0.78981 -0.050063
0.00130396 -0.783267 -0.0500662 0.00131213 -0.776724 -0.0500695 0.00132044 -0.77029 -0.0500727 0.00132876
-0.763856 -0.0500761 0.00133692 -0.757423 -0.0500797 0.00134523 -0.750989 -0.0500834 0.0013537 -0.744555
-0.0500874 0.0013623 -0.737905 -0.0500914 0.00137156 -0.731255 -0.0500957 0.00138098 -0.724606 -0.0501002
0.00139057 -0.717956 -0.050105 0.00140036 -0.711306 -0.05011 0.00141033 -0.704715 -0.050115 0.00142042
-0.698124 -0.0501204 0.00143031 -0.691533 -0.050126 0.00144042 -0.684942 -0.050132 0.00145075 -0.678351
-0.0501383 0.00146128 -0.671806 -0.0501445 0.00147221 -0.665261 -0.050151 0.00148322 -0.658716 -0.050158
0.00149444 -0.65217 -0.0501654 0.00150588 -0.645625 -0.0501732 0.00151752 -0.639089 -0.0501812 0.00152945
-0.632552 -0.0501896 0.00154097 -0.626016 -0.0501987 0.00155275 -0.619479 -0.0502084 0.00156482 -0.612943
-0.0502186 0.00157716 -0.606414 -0.050229 0.00159018 -0.599885 -0.0502398 0.00160309 -0.593356 -0.0502514
0.00161625 -0.586827 -0.050264 0.00162967 -0.580297 -0.0502773 0.00164334 -0.573782 -0.050291 0.00165746
-0.567267 -0.0503058 0.00167046 -0.560752 -0.0503218 0.00168375 -0.554237 -0.050339 0.00169733 -0.547722
-0.0503576 0.00171119 -0.541221 -0.0503763 0.00172615 -0.53472 -0.0503961 0.00174038 -0.52822 -0.0504177
0.00175483 -0.521719 -0.0504414 0.0017695 -0.515218 -0.0504669 0.0017844 -0.508738 -0.0504929 0.00179997
-0.502257 -0.0505221 0.0018118 -0.495777 -0.0505544 0.00182374 -0.489296 -0.0505898 0.0018358 -0.482815
-0.0506284 0.00184796 -0.476355 -0.0506673 0.00186314 -0.469895 -0.0507105 0.00187599 -0.463435 -0.0507587
0.00188921 -0.456974 -0.0508121 0.0019028 -0.450514 -0.0508705 0.00191676 -0.444098 -0.0509286 0.00193349
-0.437682 -0.050996 0.00194738 -0.431266 -0.051075 0.00196124 -0.424851 -0.0511641 0.00197514 -0.418434
-0.0512631 0.00198909 -0.415232 -0.0513192 0.00199581 -0.41203 -0.0513802 0.00200182 -0.408828 -0.0514463
0.00200759 -0.405627 -0.051518 0.00201319 -0.402424 -0.0515953 0.00201927 -0.399207 -0.051678 0.00202689
-0.39599 -0.0517752 0.00203311 -0.392773 -0.0518829 0.00203895 -0.389557 -0.0519986 0.00204506 -0.386336
-0.0521199 0.00205131 -0.38315 -0.052242 0.00205734 -0.379965 -0.0523855 0.00206473 -0.376782 -0.0525489
0.00207263 -0.373599 -0.0527312 0.00208054 -0.370405 -0.0529312 0.00208944 -0.367157 -0.0531488 0.00210132
-0.363913 -0.0534126 0.00211215 -0.360669 -0.0536883 0.0021227 -0.357426 -0.0539659 0.0021332 -0.35416
-0.0542484 0.00214317 -0.350768 -0.054547 0.00214812 -0.347373 -0.0548184 0.00215584 -0.343978 -0.0550728
0.00216383 -0.340581 -0.0553128 0.00217149 -0.337202 -0.0555443 0.00217904 -0.333571 -0.0558087 0.00218789
-0.329935 -0.0559809 0.00219169 -0.326298 -0.0561158 0.00219417 -0.32266 -0.0562316 0.00219655 -0.31904
-0.0563348 0.00219956 -0.315547 -0.0564381 0.00220674 -0.312052 -0.0565167 0.00220724 -0.308558 -0.0565818
0.00220619 -0.305063 -0.0566388 0.00220486 -0.30157 -0.0566939 0.00220442 -0.298204 -0.0567634 0.00220828
-0.294838 -0.0567999 0.00220648 -0.291471 -0.0568255 0.00220338 -0.288105 -0.0568473 0.00220043 -0.28474
-0.0568683 0.00219927 -0.281419 -0.0568972 0.00220505 -0.278098 -0.056908 0.00220333 -0.274777 -0.0569111
0.00219978 -0.271456 -0.0569094 0.0021961 -0.268135 -0.0569086 0.00219343 -0.264847 -0.0569272 0.00219555
-0.261559 -0.0569216 0.00219266 -0.258271 -0.0569105 0.00218861 -0.254983 -0.0568996 0.00218455 -0.251694
-0.0568916 0.00218203 -0.248411 -0.0568953 0.0021861 -0.245129 -0.056884 0.00218338 -0.241846 -0.0568666
0.00217883 -0.238563 -0.0568458 0.00217398 -0.23528 -0.0568274 0.00216994 -0.232 -0.0568286 0.00217017
-0.228721 -0.056809 0.00216577 -0.225441 -0.0567859 0.00216021 -0.222162 -0.0567652 0.00215466 -0.218882
-0.0567515 0.00215022 -0.2156 -0.0567586 0.0021502 -0.212318 -0.0567445 0.00214565 -0.209036 -0.0567248
0.00213985 -0.205755 -0.0567048 0.00213394 -0.202472 -0.056688 0.00212977 -0.199201 -0.0566846 0.00213281
-0.195929 -0.0566683 0.00212847 -0.192658 -0.0566491 0.00212228 -0.189386 -0.0566304 0.0021161 -0.186115
-0.0566158 0.00211207 -0.182832 -0.0566148 0.00211624 -0.179549 -0.0566008 0.00211153 -0.176266 -0.0565828
0.00210429 -0.172984 -0.0565642 0.0020968 -0.169701 -0.0565497 0.00209039 -0.166404 -0.0565538 0.0020891
-0.163107 -0.0565401 0.00208235 -0.159809 -0.0565234 0.00207441 -0.156512 -0.0565082 0.00206645 -0.153214
-0.0564972 0.00206042 -0.149939 -0.0564995 0.00206279 -0.146664 -0.05649 0.00205617 -0.143389 -0.056479
0.00204741 -0.140114 -0.0564691 0.00203828 -0.136839 -0.0564624 0.00203012 -0.13359 -0.0564682 0.00202866
-0.130341 -0.0564648 0.00201919 -0.127092 -0.0564615 0.00200816 -0.123843 -0.0564597 0.00199667 -0.120594
-0.0564603 0.00198535 -0.117313 -0.0564716 0.00197951 -0.114031 -0.0564776 0.00196706 -0.11075 -0.0564861
0.00195449 -0.107468 -0.0564975 0.00194232 -0.104187 -0.0565118 0.00193055 -0.10092 -0.0565365 0.00192506
-0.0976536 -0.0565654 0.00191128 -0.0943869 -0.0565972 0.00189495 -0.0911203 -0.0566314 0.00188006 -0.0878538
-0.0566696 0.00186332 -0.0862118 -0.0566919 0.00185496 -0.0845698 -0.0567137 0.00184452 -0.0829278 -0.0567356
0.00183285 -0.0812859 -0.0567582 0.00182095 -0.079644 -0.0567828 0.0018102 -0.0779946 -0.0568106 0.00180173
-0.0763452 -0.0568388 0.00179216 -0.0746958 -0.0568678 0.00178207 -0.0730464 -0.0568984 0.00177246 -0.071397
-0.0569312 0.00176392 -0.0697381 -0.0569669 0.00175678 -0.0680792 -0.0570037 0.00174876 -0.0664204 -0.0570417
0.00174014 -0.0647616 -0.0570814 0.00173134 -0.0631026 -0.057124 0.00172347 -0.0614557 -0.0571699 0.00171707
-0.0598089 -0.0572162 0.00170922 -0.0581621 -0.0572632 0.00170038 -0.0565153 -0.0573119 0.00169148 -0.0548683
-0.0573635 0.00168266 -0.0532233 -0.0574184 0.001674 -0.0515783 -0.0574752 0.00166418 -0.0499334 -0.0575338
0.00165334 -0.0482886 -0.0575947 0.00164195 -0.0466431 -0.0576604 0.00163214 -0.0450071 -0.0577316 0.00162462
-0.0433711 -0.0578006 0.00161408 -0.041735 -0.0578681 0.00160122 -0.0400989 -0.057937 0.00158815 -0.0384631
-0.0580116 0.00157528 -0.0368461 -0.0580922 0.00156287 -0.035229 -0.0581708 0.00154902 -0.0336119 -0.0582477
0.00153381 -0.0319948 -0.0583249 0.00151764 -0.030378 -0.0584117 0.00150402 -0.028778 -0.0585092 0.00149367
-0.0271771 -0.0585888 0.00147987 -0.0255754 -0.0586534 0.0014632 -0.0239737 -0.0587154 0.00144636 -0.022378
-0.0587945 0.00143036 -0.0208127 -0.0588929 0.00141562 -0.0192458 -0.0589638 0.00140053 -0.0176783 -0.0590154
0.00138497 -0.0161106 -0.0590639 0.00136875 -0.0145609 -0.0591193 0.00135251 -0.01279 -0.0592066 0.00133408
-0.0110177 -0.059255 0.00131598 -0.00924498 -0.0592888 0.00129823 -0.00747221 -0.0593185 0.00128093 -0.00570676
-0.0593455 0.00126422 -0.00397232 -0.0593931 0.00124975 -0.0022373 -0.0594086 0.00123408 -0.000502259 -0.0594196
0.00121791 0.0012328 -0.059426 0.00120124 0.00296658 -0.0594278 0.00118436 0.00465496 -0.059447 0.00116603
0.00634347 -0.059441 0.00114939 0.00803196 -0.0594334 0.00113284 0.00972045 -0.0594238 0.00111652 0.0114086
-0.0594122 0.00110042 0.0131396 -0.0594229 0.00108576 0.0148704 -0.0594076 0.00106816 0.0166013 -0.0593886
0.00104967 0.0183321 -0.0593668 0.00103037 0.0200673 -0.0593477 0.00101029 0.0216705 -0.0593487 0.000990598
0.0232737 -0.0593325 0.000970498 0.0248767 -0.0593107 0.000950245 0.0264798 -0.0592892 0.000930163 0.0280852
-0.059273 0.000910549 0.0296715 -0.0592707 0.000892206 0.0312576 -0.0592542 0.000872504 0.0328438 -0.059232
0.000852023 0.0344298 -0.0592087 0.000831077 0.0360169 -0.0591882 0.000809523 0.0376212 -0.0591781 0.000786719
0.0392253 -0.0591581 0.000764817 0.0408294 -0.0591356 0.00074333 0.0424336 -0.059114 0.000722329 0.044038
-0.0590955 0.000701926 0.0456567 -0.0590863 0.000682269 0.0472754 -0.0590671 0.000661637 0.0488939 -0.0590444
0.00064047 0.0505125 -0.0590204 0.0006189 0.0521316 -0.0589963 0.000596867 0.053758 -0.0589786 0.000573843
0.0553843 -0.058952 0.000551612 0.0570107 -0.0589237 0.000529684 0.058637 -0.0588954 0.000508147 0.0602637
-0.0588682 0.000486974 0.0618925 -0.058849 0.000466024 0.0635211 -0.058821 0.000444592 0.0651497 -0.0587905
0.000422756 0.0667782 -0.0587586 0.000400528 0.0684075 -0.0587258 0.000377795 0.0700329 -0.0586984 0.000353437
0.0716583 -0.0586643 0.000331018 0.0732837 -0.0586302 0.000308908 0.0749091 -0.0585963 0.000287156 0.0765349
-0.0585629 0.000265691 0.0781579 -0.0585352 0.000242492 0.0797808 -0.0585009 0.000220986 0.0814037 -0.0584652
0.000199191 0.0830266 -0.058428 0.000177062 0.0846501 -0.0583897 0.000154763 0.086286 -0.0583553 0.000130384
0.0879218 -0.0583148 0.000110431 0.0895576 -0.0582756 9.10141e-05 0.0911935 -0.0582382 7.22186e-05 0.0928298
-0.058203 5.38756e-05 0.0961334 -0.0581474 1.24753e-05 0.0994369 -0.0580912 -3.12612e-05 0.102741 -0.0580365
-7.74767e-05 0.106044 -0.0579843 -0.000123348 0.109348 -0.0579334 -0.000169111 0.112674 -0.0578826 -0.000212804
[...]
POINT_DATA 25045
FIELD attributes 4
age 1 25045 float
0 0.000332661 0.000665333 0.000998014 0.00133071 0.00166341 0.00205965 0.00245591 0.00285219 0.00324849 0.0036448
0.00404114 0.00443751 0.0048339 0.0052303 0.00562673 0.0060231 0.00641949 0.00681591 0.00721236 0.00760883
0.00800532 0.00840186 0.00879842 0.009195 0.00959162 0.00998809 0.0103846 0.0107811 0.0111777 0.0115743
0.0119701 0.0123658 0.0127617 0.0131575 0.0135534 0.0139427 0.0143321 0.0147215 0.0151109 0.0155004
0.015903 0.0163057 0.0167084 0.0171112 0.017514 0.0179133 0.0183127 0.0187122 0.0191117 0.0195113
0.0199082 0.0203051 0.0207022 0.0210993 0.0214965 0.0218933 0.0222902 0.0226871 0.0230842 0.0234814
0.0238782 0.0242752 0.0246723 0.0250695 0.0254669 0.0258635 0.0262603 0.0266573 0.0270545 0.0274518
0.0278483 0.0282453 0.0286424 0.0290398 0.0294374 0.0298339 0.030231 0.0306283 0.031026 0.0314239
0.0318207 0.0322185 0.0326167 0.0330153 0.0334143 0.0338107 0.0342087 0.0346074 0.0350066 0.0354064
0.0356065 0.0358068 0.0360073 0.0362081 0.0364092 0.0366117 0.0368136 0.0370151 0.0372164 0.0374182
0.0376187 0.0378178 0.0380162 0.0382142 0.0384133 0.0386177 0.038818 0.0390169 0.0392152 0.0394147
0.0396241 0.0398304 0.0400359 0.0402411 0.0404443 0.0406601 0.0408779 0.0410962 0.0413143 0.0415315
0.0417435 0.0419531 0.0421624 0.0423716 0.0425812 0.0427854 0.0429874 0.0431889 0.0433904 0.0435926
0.0437951 0.0439947 0.0441937 0.0443928 0.0445926 0.0447931 0.0449911 0.0451885 0.0453859 0.0455841
0.0457851 0.045983 0.0461804 0.0463778 0.0465761 0.0467772 0.0469754 0.0471728 0.0473702 0.0475684
0.0477697 0.0479682 0.0481659 0.0483637 0.0485624 0.0487636 0.0489618 0.0491592 0.0493567 0.049555
0.0497571 0.0499562 0.0501546 0.0503531 0.0505525 0.0507558 0.0509562 0.0511559 0.0513555 0.0515559
0.0517579 0.0519571 0.0521558 0.0523545 0.0525539 0.0527545 0.0529525 0.0531501 0.053348 0.0535462
0.0537495 0.0539501 0.0541507 0.0543516 0.0545526 0.0547534 0.054954 0.0551546 0.0553557 0.0555566
0.0556578 0.0557589 0.05586 0.0559612 0.0560625 0.0561646 0.0562664 0.0563682 0.0564699 0.0565716
0.0566741 0.0567764 0.0568788 0.0569812 0.0570837 0.0571857 0.0572875 0.0573891 0.0574907 0.0575923
0.0576938 0.0577952 0.0578965 0.0579978 0.0580994 0.0582006 0.0583014 0.0584021 0.0585026 0.0586031
0.0587023 0.0588015 0.0589007 0.0589998 0.0590989 0.0591969 0.0592948 0.0593928 0.0594906 0.0595875
0.059682 0.0597769 0.0598719 0.0599669 0.0600606 0.0601674 0.0602743 0.0603812 0.0604879 0.0605941
0.0606982 0.0608025 0.0609068 0.061011 0.0611152 0.061217 0.0613183 0.0614195 0.0615205 0.0616214
0.0617252 0.0618284 0.0619314 0.0620344 0.0621378 0.062234 0.0623293 0.0624244 0.0625194 0.0626147
0.0627095 0.0628037 0.0628977 0.0629917 0.0630862 0.0631827 0.0632782 0.0633735 0.0634688 0.0635643
0.0636616 0.0637581 0.0638546 0.0639511 0.0640479 0.0641461 0.0642433 0.0643405 0.0644377 0.0645351
0.0646337 0.0647315 0.0648294 0.0649274 0.0650256 0.0651247 0.0652229 0.0653211 0.0654194 0.0655178
0.0656172 0.0657157 0.0658143 0.0659129 0.0660117 0.0661124 0.0662119 0.0663114 0.066411 0.0665108
0.0667146 0.0669185 0.0671227 0.067327 0.0675317 0.067738 0.0679445 0.0681514 0.0683587 0.0685665
0.0687831 0.0689863 0.0691895 0.0693929 0.0695965 0.0698093 0.0700156 0.0702216 0.0704276 0.0706347
0.0708549 0.0710626 0.0712691 0.0714756 0.0716835 0.0718975 0.0721052 0.0723121 0.0725193 0.0727294
0.072951 0.0731604 0.073367 0.0735735 0.0737827 0.0740042 0.0742143 0.0744214 0.0746287 0.0748392
0.0750618 0.0752731 0.0754811 0.075689 0.0758988 0.0761153 0.0763253 0.0765331 0.0767412 0.0769522
0.077171 0.0773829 0.0775919 0.0778007 0.078012 0.0782313 0.078444 0.078654 0.0788641 0.0790787
0.0793081 0.0795282 0.0797436 0.079959 0.0801777 0.0804124 0.0806406 0.0808653 0.0810904 0.0813221
0.0815694 0.0818055 0.082035 0.0822647 0.0824986 0.0827316 0.0829589 0.0831837 0.0834095 0.0836406
0.0838636 0.0840785 0.0842893 0.0845004 0.0847132 0.0849323 0.0851466 0.0853593 0.0855725 0.0857881
0.0860102 0.0862245 0.0864362 0.0866481 0.0868622 0.0873018 0.0877397 0.0881808 0.0886241 0.0890703
0.0895069 0.0899583 0.0904097 0.090861 0.0913121 0.0917509 0.0922027 0.0926551 0.0931072 0.0935589
0.0939958 0.0944476 0.0949015 0.0953553 0.0958077 0.0962487 0.0967015 0.0971558 0.09761 0.0980616
0.0984984 0.0989499 0.099404 0.099858 0.10031 0.100751 0.101203 0.101657 0.102111 0.102563
0.103002 0.103454 0.103908 0.104362 0.104813 0.105259 0.105716 0.106175 0.106635 0.107091
0.107531 0.107985 0.108444 0.108902 0.109358 0.10979 0.110233 0.110679 0.111124 0.111565
0.111998 0.112444 0.112894 0.113345 0.113792 0.114231 0.11468 0.115132 0.115583 0.116031
0.116466 0.116914 0.117362 0.117811 0.118259 0.118697 0.119145 0.119592 0.120038 0.120483
0.120918 0.121361 0.121803 0.122244 0.122685 0.123121 0.12356 0.123998 0.124434 0.124871
0.125192 0.125514 0.125835 0.126157 0.126474 0.127023 0.127573 0.128121 0.128669 0.129216
0.130083 0.13095 0.131818 0.132685 0.13355 0.134413 0.135278 0.136144 0.13701 0.137874
0.138733 0.139597 0.140462 0.141326 0.142189 0.143048 0.143911 0.144775 0.145638 0.1465
0.147364 0.148226 0.149089 0.149952 0.150813 0.151676 0.152538 0.1534 0.154262 0.15512
0.155979 0.156837 0.157699 0.15856 0.15942 0.160273 0.161133 0.161994 0.162855 0.163715
0.164576 0.165436 0.166297 0.167157 0.168015 0.168867 0.169724 0.170585 0.171445 0.172302
0.173161 0.174019 0.174879 0.175738 0.176594 0.177445 0.178301 0.17916 0.180019 0.180878
0.181736 0.182595 0.183454 0.184312 0.185167 0.186017 0.186871 0.18773 0.188588 0.189445
0.190303 0.19116 0.192018 0.192876 0.193733 0.194589 0.195446 0.196303 0.19716 0.198016
0.198872 0.199728 0.200585 0.201441 0.202294 0.203142 0.203995 0.204851 0.205707 0.206561
0.207416 0.20827 0.209125 0.209981 0.210833 0.21168 0.212532 0.213387 0.214241 0.215095
0.215948 0.216801 0.217655 0.21851 0.219361 0.220208 0.221059 0.221913 0.222766 0.223618
0.22447 0.225322 0.226175 0.227028 0.227879 0.228725 0.229575 0.230428 0.23128 0.232132
0.232982 0.233834 0.234685 0.235538 0.236388 0.237234 0.238083 0.238935 0.239786 0.240637
0.241486 0.242336 0.243187 0.244039 0.244889 0.245738 0.246588 0.247439 0.24829 0.249139
0.249988 0.250837 0.251687 0.252538 0.253387 0.254235 0.255084 0.255935 0.256785 0.257633
0.258481 0.25933 0.260179 0.261029 0.261877 0.262722 0.26357 0.26442 0.265268 0.266117
0.266963 0.267811 0.26866 0.269509 0.270357 0.271201 0.272048 0.272898 0.273746 0.274593
0.275439 0.276286 0.277134 0.277983 0.27883 0.279674 0.280521 0.281369 0.282217 0.283064
0.283909 0.284755 0.285603 0.286451 0.287297 0.288141 0.288987 0.289835 0.290682 0.291528
0.292372 0.293219 0.294065 0.294913 0.295759 0.296602 0.297448 0.298296 0.299142 0.299988
0.300831 0.301677 0.302523 0.30337 0.304215 0.305058 0.305904 0.306751 0.307596 0.308441
0.309284 0.310129 0.310975 0.311822 0.312666 0.313509 0.314354 0.3152 0.316045 0.31689
0.317732 0.318577 0.319422 0.320268 0.321113 0.321955 0.3228 0.323646 0.324491 0.325335
0.326176 0.32702 0.327865 0.328711 0.329555 0.330397 0.331241 0.332087 0.332931 0.333775
0.334616 0.335459 0.336304 0.337149 0.337993 0.338835 0.339678 0.340523 0.341367 0.34221
0.343051 0.343894 0.344738 0.345583 0.346426 0.347268 0.348111 0.348956 0.349799 0.350642
0.351482 0.352324 0.353168 0.354012 0.354855 0.355697 0.35654 0.357384 0.358227 0.359069
0.359908 0.360751 0.361594 0.362438 0.36328 0.364122 0.364964 0.365808 0.366651 0.367493
0.368331 0.369173 0.370016 0.37086 0.371702 0.372543 0.373385 0.374228 0.375071 0.375912
0.376751 0.377592 0.378434 0.379277 0.380119 0.38096 0.381802 0.382645 0.383487 0.384328
0.385166 0.386007 0.386849 0.387692 0.388534 0.389374 0.390216 0.391058 0.3919 0.392741
0.393578 0.394419 0.39526 0.396103 0.396944 0.397784 0.398626 0.399468 0.400309 0.40115
0.401987 0.402827 0.403668 0.40451 0.405351 0.406191 0.407032 0.407874 0.408715 0.409555
0.410392 0.411232 0.412073 0.412915 0.413755 0.414595 0.415436 0.416277 0.417118 0.417959
0.418798 0.419639 0.420479 0.421321 0.422161 0.423001 0.423841 0.424682 0.425522 0.426362
0.427198 0.428037 0.428878 0.429719 0.430559 0.431398 0.432238 0.433079 0.433919 0.434758
0.435593 0.436433 0.437273 0.438113 0.438953 0.439792 0.440632 0.441472 0.442312 0.443151
0.443986 0.444825 0.445665 0.446505 0.447344 0.448183 0.449023 0.449863 0.450702 0.451541
0.452376 0.453214 0.454054 0.454894 0.455733 0.456571 0.457411 0.45825 0.45909 0.459928
0.460762 0.461601 0.46244 0.463279 0.464118 0.464957 0.465796 0.466635 0.467474 0.468312
0.469146 0.469984 0.470823 0.471662 0.472501 0.473339 0.474178 0.475017 0.475856 0.476693
0.477527 0.478365 0.479203 0.480043 0.480881 0.481719 0.482557 0.483396 0.484234 0.485072
0.485905 0.486743 0.487581 0.48842 0.489258 0.490095 0.490934 0.491772 0.49261 0.493448
0.494281 0.495118 0.495956 0.496794 0.497632 0.49847 0.499307 0.500146 0.500984 0.501821
0.502653 0.50349 0.504328 0.505166 0.506004 0.506841 0.507679 0.508517 0.509354 0.510191
0.511024 0.51186 0.512698 0.513536 0.514373 0 0.000332686 0.000665382 0.000998088 0.0013308
0.00166353 0.00176261 0.00186169 0.00196077 0.00205985 0.00215889 0.00245606 0.00275324 0.00305044 0.00334764
0.00364486 0.00404115 0.00443746 0.0048338 0.00523015 0.00562653 0.00602289 0.00641928 0.00681569 0.00721212
0.00760858 0.00800488 0.0084012 0.00879755 0.00919393 0.00959033 0.00998464 0.010379 0.0107733 0.0111677
0.0115622 0.0119497 0.0123373 0.012725 0.0131127 0.0135004 0.0138956 0.0142908 0.0146861 0.0150815
0.0154769 0.0158865 0.0162962 0.0167059 0.0171157 0.0175255 0.0179223 0.0183192 0.0187161 0.0191131
0.0195101 0.0199069 0.0203038 0.0207008 0.0210978 0.021495 0.0218918 0.0222887 0.0226857 0.0230828
0.02348 0.0238767 0.0242737 0.0246707 0.0250679 0.0254651 0.0258618 0.0262587 0.0266557 0.0270529
0.0274503 0.0278468 0.0282438 0.0286409 0.0290382 0.0294358 0.0298322 0.0302292 0.0306265 0.0310241
0.0314219 0.0318184 0.0322158 0.0326136 0.0330117 0.0334102 0.0338061 0.0342034 0.0346012 0.0349994
0.0353982 0.0357941 0.0361912 0.0365886 0.036986 0.0373848 0.0375854 0.037786 0.0379864 0.0381867
0.0383875 0.038586 0.0387837 0.0389809 0.0391774 0.0393742 0.0395722 0.0397693 0.039966 0.0401625
0.0403582 0.0405334 0.0407081 0.0408837 0.0410591 0.041279 0.0413217 0.0413643 0.041407 0.0414496
0.0414923 0.0417155 0.0419403 0.0421649 0.0423893 0.0426135 0.042825 0.0430364 0.0432473 0.043458
0.0436684 0.0438733 0.0440777 0.0442805 0.0444831 0.0446857 0.0447858 0.0448859 0.0449862 0.0450865
0.0451868 0.0452858 0.0453847 0.0454837 0.0455826 0.0456815 0.0458801 0.0460787 0.0462774 0.0464761
0.0466753 0.0468749 0.0470742 0.0472735 0.0474728 0.0476722 0.0478726 0.0480721 0.0482709 0.0484698
0.0486687 0.0488679 0.0490668 0.049266 0.0494653 0.0496643 0.0498646 0.0500648 0.050265 0.0504653
0.0506656 0.0508664 0.0510674 0.0512685 0.0514698 0.0516708 0.0518712 0.0520715 0.052272 0.0524725
0.0526734 0.0528747 0.0530751 0.0532757 0.0534764 0.0536773 0.0538812 0.0540843 0.0542873 0.0544901
0.0546928 0.054897 0.0551001 0.0553031 0.0555061 0.0557091 0.0559142 0.0561183 0.0563224 0.0565266
0.0567306 0.0568307 0.0569309 0.0570312 0.0571316 0.0572321 0.0573248 0.0574176 0.0575102 0.0576027
0.0576952 0.0577948 0.0578946 0.0579944 0.0580942 0.058194 0.0582959 0.0583976 0.0584992 0.0586007
0.0587022 0.0588036 0.058905 0.0590065 0.0591079 0.0592093 0.0593105 0.0594114 0.0595123 0.059613
0.0597135 0.0598128 0.0599119 0.060011 0.0601102 0.0602093 0.0603103 0.0604112 0.060512 0.0606127
0.0607133 0.0608133 0.0609133 0.0610132 0.0611132 0.0612131 0.0613126 0.061412 0.0615113 0.0616105
0.0617096 0.0618076 0.0619055 0.0620035 0.0621014 0.0621994 0.0622964 0.0623932 0.06249 0.0625868
0.0626835 0.062781 0.0628785 0.062976 0.0630735 0.063171 0.06327 0.0633688 0.0634676 0.0635664
0.0636652 0.0638651 0.0640649 0.064265 0.0644653 0.0646659 0.0647643 0.0648629 0.0649616 0.0650604
0.0651593 0.0652589 0.0653585 0.0654581 0.0655577 0.0656572 0.065856 0.0660548 0.0662537 0.0664527
0.0666515 0.0668506 0.0670493 0.0672481 0.0674469 0.0676459 0.0678458 0.0680447 0.0682437 0.0684428
0.068642 0.0688436 0.0690441 0.0692446 0.0694451 0.0696456 0.0698473 0.0700487 0.0702503 0.070452
0.0706537 0.0708549 0.0710564 0.0712582 0.0714599 0.0716614 0.0718622 0.0720631 0.0722641 0.0724651
0.0726662 0.072786 0.0729058 0.0730258 0.073146 0.0732668 0.0733484 0.07343 0.0735118 0.0735937
0.0736757 0.0738785 0.0740816 0.0742852 0.0744889 0.0746922 0.0748945 0.0750979 0.0753015 0.0755052
0.0757089 0.0759103 0.0761135 0.0763171 0.0765207 0.0767238 0.0767688 0.0768141 0.0768593 0.0769045
0.0769503 0.077105 0.0772592 0.0774135 0.0775679 0.0777222 0.0779251 0.0781274 0.07833 0.0785328
0.0787358 0.0789441 0.0791516 0.079359 0.0795664 0.0797738 0.0799958 0.0802164 0.0804374 0.0806586
0.0808802 0.0811024 0.081324 0.0815459 0.0817682 0.0819909 0.0821972 0.0824031 0.0826097 0.0828169
0.0830249 0.0832298 0.083435 0.0836406 0.0838465 0.0840526 0.0842593 0.0844661 0.0846733 0.0848807
0.0850885 0.0851759 0.0852633 0.0853507 0.0854381 0.0855304 0.08565 0.0857697 0.0858894 0.0860091
0.0861288 0.0865413 0.0869553 0.0873721 0.0877912 0.0882122 0.0886376 0.0890643 0.0894907 0.0899168
0.0903428 0.0907688 0.0911958 0.0916227 0.0920494 0.0924758 0.0929021 0.0933292 0.0937561 0.0941828
0.0946094 0.0950357 0.0954631 0.0958905 0.0963176 0.0967446 0.0971713 0.0975989 0.0980263 0.0984536
0.0988808 0.0993074 0.0997351 0.100163 0.10059 0.101018 0.101444 0.101872 0.102299 0.102727
0.103154 0.103581 0.104008 0.104436 0.104863 0.105291 0.105718 0.106145 0.106573 0.107
0.107427 0.107874 0.108321 0.108768 0.109216 0.109663 0.110077 0.110491 0.110906 0.11132
0.111735 0.112155 0.112576 0.112997 0.113418 0.113839 0.114265 0.114691 0.115118 0.115544
0.11597 0.116397 0.116824 0.11725 0.117677 0.118104 0.118433 0.118763 0.119092 0.119422
0.119748 0.119845 0.119943 0.120041 0.120139 0.120237 0.120663 0.12109 0.121517 0.121943
0.12237 0.122796 0.123223 0.12365 0.124076 0.124503 0.124929 0.125355 0.125782 0.126208
0.126635 0.127061 0.127487 0.127914 0.12834 0.128766 0.12906 0.129354 0.129648 0.129942
0.130238 0.13037 0.130502 0.130634 0.130765 0.130897 0.131323 0.131749 0.132176 0.132602
0.133028 0.133454 0.13388 0.134306 0.134732 0.135158 0.135584 0.13601 0.136435 0.136861
0.137287 0.137713 0.138139 0.138565 0.13899 0.139416 0.139842 0.140268 0.140693 0.141119
0.141545 0.141971 0.142396 0.142822 0.143247 0.143672 0.144098 0.144524 0.144949 0.145375
0.1458 0.146226 0.146651 0.147076 0.147502 0.147927 0.148353 0.148778 0.149203 0.149628
0.150053 0.150479 0.150904 0.151329 0.151754 0.152179 0.152605 0.15303 0.153455 0.15388
0.154305 0.154731 0.155156 0.15558 0.156005 0.15643 0.156856 0.157281 0.157705 0.15813
0.158555 0.15898 0.159405 0.15983 0.160254 0.160679 0.161105 0.161529 0.161954 0.162379
0.162803 0.163229 0.163653 0.164078 0.164502 0.164926 0.165352 0.165777 0.166201 0.166625
0.16705 0.167475 0.1679 0.168324 0.168748 0.169172 0.169598 0.170022 0.170447 0.170871
0.171295 0.17172 0.172144 0.172569 0.172993 0.173417 0.173842 0.174267 0.174691 0.175115
0.175539 0.175964 0.176388 0.176812 0.177236 0.17766 0.178086 0.17851 0.178934 0.179357
0.179781 0.180207 0.18063 0.181054 0.181478 0.181902 0.182328 0.182751 0.183175 0.183599
0.184023 0.184448 0.184872 0.185295 0.185719 0.186143 0.186568 0.186992 0.187416 0.18784
0.188264 0.188689 0.189113 0.189537 0.189962 0.190386 0.190811 0.191235 0.191659 0.192084
0.192508 0.192933 0.193357 0.193782 0.194206 0.194631 0.195056 0.19548 0.195905 0.196329
0.196754 0.197179 0.197603 0.198028 0.198453 0.198878 0.198922 0.198967 0.199011 0.199056
0.199101 0.199481 0.199861 0.200241 0.200621 0.201001 0.201426 0.20185 0.202275 0.202699
0.203123 0.203548 0.203972 0.204397 0.204821 0.205245 0.205669 0.206093 0.206517 0.206941
0.207364 0.207789 0.208213 0.208636 0.20906 0.209483 0.209908 0.210331 0.210754 0.211178
0.211601 0.212025 0.212449 0.212872 0.213295 0.213718 0.214142 0.214565 0.214988 0.21541
0.215833 0.216258 0.21668 0.217103 0.217525 0.217948 0.218372 0.218794 0.219217 0.219639
0.220061 0.220486 0.220908 0.22133 0.221752 0.222174 0.222598 0.22302 0.223442 0.223864
0.224286 0.22471 0.225132 0.225554 0.225975 0.226397 0.226821 0.227242 0.227664 0.228085
0.228507 0.228931 0.229353 0.229774 0.230195 0.230616 0.23104 0.231461 0.231883 0.232304
0.232725 0.233149 0.23357 0.233992 0.234413 0.234834 0.235257 0.235679 0.2361 0.236521
0.236942 0.237366 0.237787 0.238208 0.238629 0.23905 0.239473 0.239894 0.240315 0.240736
0.241157 0.241581 0.242002 0.242422 0.242843 0.243264 0.243687 0.244108 0.244529 0.24495
0.24537 0.245794 0.246215 0.246636 0.247056 0.247477 0.2479 0.248321 0.248741 0.249162
0.249583 0.250006 0.250427 0.250847 0.251268 0.251689 0.252111 0.252532 0.252953 0.253373
0.253794 0.254217 0.254637 0.255058 0.255478 0.255899 0.256322 0.256742 0.257162 0.257583
0.258003 0.258426 0.258847 0.259267 0.259687 0.260108 0.260531 0.260951 0.261371 0.261791
0.262212 0.262635 0.263055 0.263475 0.263896 0.264316 0.264739 0.265159 0.265579 0.265999
0.26642 0.266842 0.267263 0.267683 0.268103 0.268523 0.268946 0.269366 0.269786 0.270206
0.270626 0.271049 0.271469 0.27189 0.27231 0.27273 0.273152 0.273572 0.273992 0.274412
0.274832 0.275255 0.275675 0.276095 0.276515 0.276935 0.277357 0.277778 0.278198 0.278617
0.279038 0.27946 0.27988 0.2803 0.28072 0.28114 0.281562 0.281982 0.282402 0.282822
0.283242 0.283664 0.284085 0.284504 0.284924 0.285344 0.285766 0.286186 0.286606 0.287026
0.287446 0.287868 0.288288 0.288708 0.289127 0.289547 0.289969 0.290389 0.290809 0.291228
0.291648 0.292071 0.292491 0.29291 0.29333 0.29375 0.294172 0.294592 0.295011 0.295431
0.295851 0.296273 0.296693 0.297112 0.297532 0.297952 0.298373 0.298793 0.299213 0.299632
0.300052 0.300474 0.300894 0.301313 0.301733 0.302153 0.302574 0.302994 0.303414 0.303833
0.304253 0.304675 0.305095 0.305514 0.305933 0.306353 0.306775 0.307195 0.307614 0.308033
0.308453 0.308875 0.309295 0.309714 0.310133 0.310553 0.310974 0.311394 0.311813 0.312233
0.312652 0.313074 0.313494 0.313913 0.314332 0.314752 0.315173 0.315593 0.316012 0.316432
0.316851 0.317273 0.317693 0.318112 0.318531 0.318951 0.319372 0.319792 0.320211 0.32063
0.32105 0.321471 0.321891 0.32231 0.322729 0.323149 0.32357 0.323989 0.324409 0.324828
0.325247 0.325669 0.326088 0.326507 0.326927 0.327346 0.327767 0.328187 0.328606 0.329025
0.329444 0.329865 0.330284 0.330703 0.331122 0.331542 0.331963 0.332382 0.332801 0.33322
0.33364 0.334061 0.334481 0.3349 0.335319 0.335738 0.336159 0.336578 0.336997 0.337416
0.337836 0.338257 0.338677 0.339095 0.339514 0.339934 0.340355 0.340774 0.341193 0.341612
0.342031 0.342452 0.342872 0.343291 0.34371 0.344129 0.34455 0.344969 0.345388 0.345807
0.346226 0.346647 0.347067 0.347485 0.347904 0.348324 0.348744 0.349164 0.349582 0.350001
0.350421 0.350841 0.351261 0.35168 0.352098 0.352518 0.352938 0.353358 0.353776 0.354195
0.354615 0.355035 0.355455 0.355873 0.356292 0.356711 0.357132 0.357551 0.35797 0.358389
0.358808 0.359228 0.359648 0.360066 0.360485 0.360905 0.361325 0.361744 0.362163 0.362581
0.363001 0.363421 0.36384 0.364259 0.364678 0.365097 0.365517 0.365936 0.366355 0.366774
0.367193 0.367613 0.368033 0.368451 0.36887 0.36929 0.369709 0.370129 0.370548 0.370966
0.371385 0.371806 0.372225 0.372644 0.373063 0.373482 0.373902 0.374321 0.37474 0.375159
0.375578 0.375998 0.376417 0.376836 0.377255 0.377674 0.378094 0.378513 0.378932 0.379351
0.37977 0.38019 0.380609 0.381028 0.381447 0.381866 0.382286 0.382705 0.383124 0.383543
0.383962 0.384382 0.384801 0.38522 0.385638 0.386058 0.386477 0.386896 0.387315 0.387734
0.388153 0.388573 0.388992 0.389411 0.38983 0.390249 0.390669 0.391088 0.391507 0.391926
0.392345 0.392765 0.393183 0.393602 0.394021 0.39444 0.39486 0.395279 0.395698 0.396117
0.396536 0.396956 0.397374 0.397793 0.398212 0.398631 0.399051 0.39947 0.399889 0.400308
0.400727 0.401146 0.401565 0.401984 0.402403 0.402822 0.403242 0.403661 0.40408 0.404498
0.404917 0.405337 0.405756 0.406174 0.406593 0.407012 0.407432 0.407851 0.40827 0.408689