# vtk DataFile Version 2.0
tracks
ASCII
DATASET POLYDATA
POINTS 25145 float
-1.001 -0.05 0.0011 -0.99549 -0.0500041 0.00109411 -0.989981 -0.0500079 0.00108906 -0.984471 -0.0500113
0.00108479 -0.978962 -0.0500142 0.00108128 -0.973452 -0.0500167 0.00107826 -0.966891 -0.0500182 0.00107485
-0.960329 -0.0500181 0.00107453 -0.953767 -0.0500183 0.00107606 -0.947206 -0.0500186 0.00107794 -0.940644
-0.0500193 0.00108018 -0.934083 -0.0500218 0.00108186 -0.927521 -0.0500264 0.00108352 -0.920959 -0.0500308
0.00108478 -0.914397 -0.050035 0.00108586 -0.907836 -0.0500391 0.00108771 -0.901275 -0.0500407 0.00108994
-0.894715 -0.0500396 0.00109283 -0.888154 -0.0500388 0.00109625 -0.881594 -0.0500384 0.00110007 -0.875033
-0.0500385 0.00110421 -0.868472 -0.0500418 0.00110852 -0.861912 -0.0500489 0.00111306 -0.855351 -0.0500559
0.00111779 -0.84879 -0.0500627 0.00112279 -0.84223 -0.0500695 0.00112813 -0.835672 -0.0500723 0.00113379
-0.829114 -0.0500701 0.00113963 -0.822556 -0.0500683 0.00114585 -0.815998 -0.0500668 0.00115244 -0.80944
-0.0500656 0.00115943 -0.802897 -0.0500699 0.00116694 -0.796353 -0.0500804 0.00117494 -0.78981 -0.0500904
0.0011834 -0.783267 -0.0501002 0.00119218 -0.776723 -0.0501098 0.00120128 -0.770289 -0.0501125 0.00121059
-0.763856 -0.0501079 0.00122086 -0.757422 -0.0501035 0.00123124 -0.750988 -0.0500992 0.00124173 -0.744554
-0.0500955 0.00125227 -0.737905 -0.0500997 0.00126243 -0.731256 -0.0501113 0.0012735 -0.724607 -0.0501236
0.00128451 -0.717959 -0.0501365 0.00129554 -0.711309 -0.0501495 0.00130649 -0.704718 -0.050157 0.00131614
-0.698126 -0.0501619 0.00132514 -0.691535 -0.0501662 0.00133451 -0.684943 -0.0501699 0.00134423 -0.678351
-0.050173 0.00135432 -0.671806 -0.0501773 0.00136549 -0.665261 -0.0501827 0.00137763 -0.658716 -0.0501892
0.00139023 -0.652171 -0.0501967 0.0014033 -0.645625 -0.0502054 0.00141683 -0.639089 -0.0502143 0.00143061
-0.632552 -0.0502234 0.00144491 -0.626016 -0.0502329 0.00145961 -0.619479 -0.0502427 0.00147472 -0.612943
-0.0502529 0.00149024 -0.606414 -0.050263 0.00150591 -0.599885 -0.0502735 0.00152208 -0.593356 -0.0502848
0.00153876 -0.586827 -0.0502969 0.00155596 -0.580298 -0.0503098 0.00157368 -0.573782 -0.0503232 0.00159187
-0.567267 -0.0503376 0.00161075 -0.560752 -0.050353 0.00163062 -0.554237 -0.0503694 0.00165146 -0.547722
-0.0503869 0.00167327 -0.541221 -0.0504042 0.00169615 -0.534721 -0.0504223 0.00172078 -0.52822 -0.0504422
0.00174588 -0.521719 -0.0504637 0.00177144 -0.515218 -0.0504869 0.00179746 -0.508738 -0.0505112 0.00182292
-0.502257 -0.0505391 0.00184768 -0.495777 -0.0505695 0.00187013 -0.489296 -0.0506025 0.00189028 -0.482815
-0.0506381 0.00190811 -0.476355 -0.0506726 0.00192248 -0.469895 -0.050712 0.00193613 -0.463435 -0.0507553
0.00194822 -0.456974 -0.0508027 0.00195876 -0.450514 -0.0508542 0.00196773 -0.444098 -0.0509049 0.00197296
-0.437682 -0.0509643 0.00197901 -0.431267 -0.0510353 0.00198914 -0.424851 -0.0511152 0.00200279 -0.418434
-0.0512041 0.00202 -0.415232 -0.0512563 0.00203018 -0.412031 -0.0513172 0.00204188 -0.408829 -0.0513834
0.00205366 -0.405627 -0.0514537 0.0020647 -0.402425 -0.0515259 0.00207453 -0.399207 -0.0515963 0.00208234
-0.39599 -0.0516751 0.00208544 -0.392773 -0.0517601 0.00208629 -0.389557 -0.05185 0.00208641 -0.386338
-0.0519433 0.00208689 -0.383152 -0.0520365 0.00208931 -0.379968 -0.0521493 0.0020962 -0.376783 -0.0522763
0.0021054 -0.373599 -0.0524137 0.00211542 -0.370409 -0.0525596 0.00212544 -0.367164 -0.0527128 0.00213426
-0.36392 -0.0528823 0.00213799 -0.360676 -0.0530586 0.00214002 -0.357432 -0.0532377 0.00214176 -0.354181
-0.0534306 0.00214435 -0.350787 -0.0536746 0.00215105 -0.347391 -0.0538912 0.002158 -0.343995 -0.0540979
0.00216524 -0.340598 -0.0543028 0.00217275 -0.337212 -0.0545044 0.00218028 -0.333575 -0.0547154 0.0021889
-0.329936 -0.0548965 0.00219702 -0.326296 -0.0550571 0.00220467 -0.322655 -0.0552052 0.00221189 -0.319021
-0.0553398 0.00221868 -0.315529 -0.0554535 0.00222479 -0.312036 -0.0555581 0.00223095 -0.308543 -0.0556548
0.00223677 -0.30505 -0.0557453 0.00224223 -0.301557 -0.0558292 0.00224747 -0.298192 -0.0559026 0.0022527
-0.294827 -0.0559745 0.0022576 -0.291462 -0.0560432 0.00226222 -0.288097 -0.0561084 0.0022666 -0.284732
-0.056169 0.00227072 -0.281412 -0.0562223 0.00227454 -0.278092 -0.0562746 0.00227788 -0.274772 -0.056325
0.0022809 -0.271452 -0.0563729 0.00228367 -0.268132 -0.0564179 0.00228614 -0.264844 -0.0564585 0.0022881
-0.261556 -0.0565003 0.00229059 -0.258269 -0.0565409 0.0022931 -0.254981 -0.0565798 0.00229548 -0.251693
-0.0566162 0.00229762 -0.24841 -0.056648 0.0022992 -0.245127 -0.0566794 0.00230032 -0.241844 -0.0567092
0.00230112 -0.238561 -0.0567372 0.00230163 -0.235279 -0.0567632 0.0023019 -0.231999 -0.0567866 0.00230203
-0.22872 -0.056811 0.00230327 -0.22544 -0.0568361 0.00230491 -0.22216 -0.0568619 0.0023067 -0.218881
-0.0568877 0.00230822 -0.215599 -0.0569117 0.00230818 -0.212317 -0.0569364 0.00230739 -0.209035 -0.0569617
0.0023068 -0.205754 -0.0569874 0.00230674 -0.202472 -0.0570134 0.00230736 -0.1992 -0.0570392 0.00230925
-0.195929 -0.0570643 0.0023141 -0.192657 -0.0570875 0.00231994 -0.189386 -0.0571084 0.00232626 -0.186114
-0.0571273 0.00233237 -0.182831 -0.0571442 0.00233591 -0.179548 -0.0571601 0.00233764 -0.176265 -0.0571753
0.00233919 -0.172982 -0.0571899 0.00234099 -0.169699 -0.057204 0.00234351 -0.166402 -0.0572182 0.00234932
-0.163105 -0.0572324 0.00235814 -0.159808 -0.0572474 0.00236763 -0.156511 -0.0572634 0.00237716 -0.153214
-0.0572805 0.00238665 -0.149939 -0.0572992 0.00239551 -0.146665 -0.0573167 0.00240298 -0.14339 -0.0573336
0.00241024 -0.140115 -0.0573497 0.00241769 -0.136841 -0.0573652 0.0024253 -0.133592 -0.0573807 0.00243203
-0.130343 -0.0573966 0.00243797 -0.127095 -0.0574129 0.00244338 -0.123846 -0.0574297 0.00244825 -0.120597
-0.0574467 0.00245253 -0.117314 -0.0574618 0.00245498 -0.114031 -0.0574799 0.00245715 -0.110748 -0.0575011
0.00245871 -0.107464 -0.0575259 0.00245888 -0.104181 -0.0575541 0.00245766 -0.100914 -0.0575894 0.0024585
-0.0976461 -0.0576254 0.00245685 -0.0943787 -0.0576629 0.00245714 -0.0911113 -0.0576976 0.00246675 -0.0878436
-0.0577324 0.00247513 -0.0862018 -0.0577526 0.00247975 -0.0845599 -0.0577751 0.00247961 -0.0829181 -0.0577989
0.00247928 -0.0812763 -0.0578246 0.00247911 -0.0796345 -0.0578524 0.00247988 -0.077985 -0.0578814 0.00248662
-0.0763356 -0.0579111 0.00249586 -0.0746861 -0.0579417 0.00250621 -0.0730367 -0.0579732 0.00251693 -0.0713869
-0.058006 0.00252707 -0.0697298 -0.0580405 0.00253497 -0.0680728 -0.0580771 0.00254016 -0.0664159 -0.0581157
0.00254472 -0.0647589 -0.0581561 0.00254947 -0.0631019 -0.0581983 0.00255549 -0.061455 -0.0582423 0.00256502
-0.0598081 -0.0582874 0.00257586 -0.0581613 -0.0583338 0.00258708 -0.0565145 -0.058382 0.00259741 -0.0548674
-0.0584331 0.00260507 -0.0532235 -0.0584879 0.00260876 -0.0515797 -0.058545 0.00260942 -0.0499359 -0.0586043
0.00260889 -0.0482922 -0.0586662 0.00260826 -0.0466479 -0.0587321 0.00260924 -0.0450134 -0.058803 0.0026144
-0.0433789 -0.0588742 0.00262111 -0.0417445 -0.0589462 0.0026287 -0.0401101 -0.0590191 0.00263687 -0.0384756
-0.0590962 0.00264457 -0.0368599 -0.0591806 0.00264999 -0.0352442 -0.0592628 0.00265504 -0.0336285 -0.0593454
0.00265897 -0.0320129 -0.0594306 0.00266194 -0.0303974 -0.0595234 0.00266492 -0.0287978 -0.0596288 0.00266844
-0.0271974 -0.0597211 0.00266974 -0.0255966 -0.0598057 0.00266971 -0.0239956 -0.059887 0.00266964 -0.0223996
-0.0599662 0.00266988 -0.0208298 -0.060044 0.00266992 -0.0192595 -0.0601111 0.00267049 -0.017689 -0.0601726
0.00267135 -0.0161183 -0.060231 0.00267224 -0.0145547 -0.060287 0.00267284 -0.012792 -0.0603488 0.00267109
-0.011029 -0.060401 0.00267102 -0.00926589 -0.0604466 0.00267007 -0.00750257 -0.0604853 0.00266894 -0.00574149
-0.0605172 0.00266818 -0.00400386 -0.060539 0.0026675 -0.00226615 -0.0605546 0.00266677 -0.000528399 -0.0605638
0.00266669 0.00120937 -0.0605666 0.0026671 0.00294711 -0.0605631 0.00266776 0.0046364 -0.060554 0.00266954
0.00632564 -0.0605385 0.00267176 0.00801482 -0.0605169 0.00267354 0.0097039 -0.0604889 0.00267518 0.0113936
-0.0604542 0.00267698 0.0131172 -0.0604132 0.00267774 0.0148405 -0.0603594 0.00267663 0.0165635 -0.0602983
0.00267575 0.0182862 -0.0602298 0.00267422 0.0200147 -0.0601538 0.00267134 0.021621 -0.0600695 0.00267063
0.0232275 -0.0599889 0.0026705 0.0248341 -0.0599084 0.00267061 0.0264405 -0.0598272 0.00267081 0.0280461
-0.0597416 0.00267103 0.0296372 -0.0596406 0.00267153 0.0312291 -0.0595539 0.00266966 0.0328212 -0.0594708
0.00266711 0.0344133 -0.0593869 0.00266423 0.0360014 -0.0593009 0.00266082 0.0376066 -0.0592077 0.00265644
0.0392124 -0.0591254 0.00265427 0.0408185 -0.0590487 0.0026532 0.0424247 -0.0589752 0.00265255 0.0440273
-0.0589044 0.00265204 0.0456469 -0.0588344 0.00265219 0.0472667 -0.0587696 0.0026511 0.0488866 -0.0587077
0.00264963 0.0505066 -0.0586474 0.00264836 0.0521253 -0.0585884 0.00264727 0.053752 -0.0585303 0.00264618
0.0553789 -0.0584762 0.00264697 0.0570059 -0.0584251 0.00264814 0.0586329 -0.0583763 0.00264879 0.060259
-0.0583299 0.00264825 0.0618886 -0.0582857 0.00264569 0.0635182 -0.0582432 0.00264032 0.0651478 -0.0582021
0.0026341 0.0667775 -0.0581623 0.00262857 0.0684069 -0.058124 0.00262457 0.0700346 -0.0580878 0.00262375
0.0716623 -0.0580528 0.00262694 0.07329 -0.0580194 0.00263137 0.0749178 -0.0579874 0.00263596 0.0765454
-0.0579572 0.00263935 0.0781716 -0.0579291 0.00263874 0.0797977 -0.057902 0.00263545 0.0814239 -0.0578758
0.0026313 0.08305 -0.0578502 0.00262746 0.084676 -0.0578253 0.00262456 0.0863124 -0.0578009 0.00262446
0.0879487 -0.0577767 0.00263003 0.0895852 -0.0577542 0.0026361 0.0912216 -0.0577337 0.00264136 0.0928582
-0.0577144 0.00264603 0.0961585 -0.0576803 0.00264451 0.0994589 -0.0576494 0.00264168 0.102759 -0.0576158
0.00264254 0.10606 -0.0575794 0.00264709 0.10936 -0.0575423 0.00265385 0.112681 -0.057503 0.00266031
0.116003 -0.0574686 0.0026671 0.119325 -0.0574373 0.00267035 0.122646 -0.0574093 0.00266948 0.125968
[...]
POINT_DATA 25145
FIELD attributes 4
age 1 25145 float
0 0.000335484 0.000671271 0.00100709 0.00134293 0.00167848 0.00207668 0.00247468 0.00287245 0.00326978 0.00366667
0.00406312 0.00445956 0.00485593 0.00525225 0.00564851 0.0060446 0.00644068 0.00683677 0.00723284 0.00762889
0.00802494 0.00842101 0.00881709 0.00921319 0.0096093 0.0100053 0.0104013 0.0107973 0.0111933 0.0115894
0.0119846 0.0123799 0.0127751 0.0131704 0.0135657 0.0139544 0.0143432 0.0147319 0.0151207 0.0155095
0.0159113 0.0163131 0.016715 0.0171169 0.0175188 0.0179173 0.0183159 0.0187145 0.0191132 0.019512
0.0199079 0.020304 0.0207001 0.0210963 0.0214926 0.0218883 0.0222842 0.0226801 0.0230761 0.0234722
0.0238679 0.0242638 0.0246597 0.0250557 0.0254518 0.0258472 0.0262427 0.0266383 0.027034 0.0274298
0.0278248 0.02822 0.0286153 0.0290106 0.0294061 0.0298004 0.030195 0.0305897 0.0309847 0.0313798
0.0317738 0.0321686 0.0325637 0.0329592 0.0333552 0.0337488 0.0341434 0.0345388 0.0349349 0.0353317
0.0355302 0.0357294 0.0359291 0.036129 0.0363291 0.0365299 0.0367305 0.0369309 0.037131 0.0373314
0.0375299 0.0377276 0.0379249 0.0381219 0.0383198 0.0385224 0.0387226 0.0389215 0.0391199 0.0393184
0.0395262 0.0397319 0.0399365 0.0401403 0.0403424 0.040557 0.0407725 0.040988 0.0412032 0.0414175
0.0416226 0.0418282 0.0420338 0.0422393 0.0424445 0.0426419 0.0428396 0.0430375 0.0432355 0.0434336
0.043629 0.0438246 0.0440203 0.044216 0.0444117 0.0446056 0.0447997 0.0449939 0.0451883 0.0453828
0.0455772 0.0457716 0.045966 0.0461605 0.046355 0.0465494 0.0467438 0.0469383 0.047133 0.0473278
0.0475228 0.0477178 0.0479129 0.048108 0.0483031 0.0484979 0.0486926 0.0488872 0.0490819 0.0492767
0.0494722 0.0496678 0.0498634 0.0500589 0.0502545 0.050451 0.0506475 0.0508441 0.0510407 0.0512372
0.0514324 0.0516277 0.051823 0.0520184 0.0522138 0.0524077 0.0526018 0.0527961 0.0529906 0.0531852
0.0533819 0.0535788 0.053776 0.0539737 0.0541718 0.0543699 0.0545678 0.054766 0.0549647 0.0551629
0.0552626 0.0553627 0.055463 0.0555632 0.0556634 0.0557637 0.055864 0.0559641 0.0560642 0.0561641
0.0562643 0.0563646 0.0564647 0.0565648 0.056665 0.0567645 0.0568639 0.0569632 0.0570624 0.0571616
0.0572607 0.0573598 0.0574587 0.0575576 0.0576566 0.0577551 0.0578533 0.0579512 0.058049 0.0581466
0.058243 0.0583389 0.0584346 0.05853 0.0586251 0.058719 0.0588126 0.058906 0.0589993 0.0590918
0.0591821 0.0592724 0.0593626 0.0594526 0.059542 0.059642 0.0597424 0.0598428 0.0599431 0.0600432
0.0601418 0.0602405 0.060339 0.0604374 0.0605357 0.060631 0.0607267 0.0608224 0.0609183 0.0610144
0.0611123 0.0612106 0.0613091 0.0614077 0.0615068 0.0615986 0.0616912 0.0617842 0.0618774 0.0619709
0.0620638 0.0621572 0.062251 0.0623449 0.0624389 0.0625344 0.0626299 0.0627256 0.0628214 0.0629172
0.0630143 0.0631114 0.0632086 0.0633059 0.0634032 0.0635013 0.0635993 0.0636972 0.0637951 0.063893
0.0639913 0.0640894 0.0641876 0.0642858 0.0643841 0.0644824 0.0645806 0.0646788 0.064777 0.0648753
0.0649734 0.0650717 0.06517 0.0652684 0.0653669 0.065466 0.0655655 0.065665 0.0657645 0.065864
0.0660636 0.066263 0.0664626 0.0666622 0.0668619 0.0670633 0.0672636 0.0674635 0.0676628 0.0678616
0.0680562 0.0682506 0.068445 0.0686392 0.0688333 0.0690296 0.0692257 0.0694218 0.0696178 0.0698137
0.0700098 0.0702057 0.0704017 0.0705977 0.0707936 0.0709889 0.0711843 0.0713796 0.071575 0.0717703
0.0719651 0.0721599 0.0723548 0.0725496 0.0727445 0.07294 0.0731353 0.0733306 0.073526 0.0737214
0.0739172 0.074113 0.0743086 0.0745042 0.0746997 0.0748953 0.0750907 0.0752858 0.0754808 0.0756756
0.0758713 0.0760669 0.0762625 0.076458 0.0766535 0.07685 0.0770463 0.0772426 0.0774387 0.0776347
0.0778359 0.0780372 0.0782387 0.0784403 0.0786418 0.0788524 0.0790633 0.0792743 0.0794854 0.0796964
0.0799091 0.0801232 0.080338 0.0805534 0.0807696 0.0809762 0.0811838 0.0813923 0.0816013 0.0818117
0.0820079 0.0822034 0.0823989 0.0825948 0.0827907 0.0829887 0.0831868 0.0833849 0.0835835 0.0837824
0.0839803 0.0841785 0.0843766 0.0845746 0.0847721 0.085167 0.0855609 0.0859541 0.0863468 0.0867386
0.0871338 0.0875286 0.087923 0.0883171 0.0887108 0.089106 0.0895007 0.0898951 0.0902892 0.090683
0.0910776 0.0914721 0.0918665 0.0922607 0.0926549 0.0930503 0.0934457 0.0938411 0.0942364 0.0946318
0.0950279 0.095424 0.09582 0.096216 0.0966119 0.0970085 0.097405 0.0978014 0.0981977 0.098594
0.0989905 0.0993871 0.0997835 0.10018 0.100576 0.100975 0.101373 0.101771 0.102169 0.102567
0.102975 0.103382 0.10379 0.104197 0.104605 0.104993 0.105382 0.105771 0.106159 0.106548
0.10694 0.107333 0.107725 0.108118 0.10851 0.108907 0.109303 0.109699 0.110095 0.110491
0.110888 0.111285 0.111681 0.112078 0.112474 0.112871 0.113268 0.113664 0.114061 0.114458
0.114854 0.115251 0.115647 0.116044 0.11644 0.116837 0.117234 0.11763 0.118027 0.118423
0.11882 0.119216 0.119613 0.120009 0.120406 0.120802 0.121199 0.121595 0.121992 0.122388
0.122785 0.123181 0.123578 0.123974 0.124371 0.124767 0.125164 0.12556 0.125957 0.126353
0.126749 0.127146 0.127542 0.127939 0.128335 0.128731 0.129128 0.129524 0.129921 0.130317
0.130713 0.13111 0.131506 0.131903 0.132299 0.132695 0.133092 0.133488 0.133884 0.134281
0.134677 0.135073 0.13547 0.135866 0.136262 0.136659 0.137055 0.137452 0.137848 0.138244
0.138641 0.139037 0.139433 0.13983 0.140226 0.140622 0.141019 0.141415 0.141811 0.142208
0.142604 0.143 0.143397 0.143793 0.144189 0.144586 0.144982 0.145378 0.145774 0.146171
0.146567 0.146963 0.14736 0.147756 0.148152 0.148549 0.148945 0.149341 0.149738 0.150134
0.15053 0.150927 0.151323 0.151719 0.152116 0.152428 0.15274 0.153052 0.153364 0.153677
0.153761 0.153845 0.153929 0.154013 0.154097 0.15489 0.155683 0.156475 0.157268 0.158061
0.158854 0.159646 0.160439 0.161232 0.162025 0.162817 0.16361 0.164403 0.165196 0.165988
0.166781 0.167574 0.168367 0.16916 0.169952 0.170745 0.171538 0.172331 0.173124 0.173917
0.17471 0.175503 0.176296 0.177089 0.177882 0.178675 0.179468 0.180261 0.181054 0.181847
0.18264 0.183433 0.184226 0.185019 0.185813 0.186606 0.187399 0.188192 0.188985 0.189779
0.190572 0.191365 0.192159 0.192952 0.193745 0.194539 0.195332 0.196126 0.196919 0.197713
0.198506 0.1993 0.200093 0.200887 0.20168 0.202474 0.203268 0.204061 0.204855 0.205649
0.206443 0.207236 0.20803 0.208824 0.209618 0.210412 0.211206 0.212 0.212794 0.213588
0.214382 0.215176 0.21597 0.216764 0.217558 0.218353 0.219147 0.219941 0.220735 0.22153
0.222324 0.223118 0.223913 0.224707 0.225502 0.226297 0.227091 0.227886 0.22868 0.229475
0.23027 0.231065 0.23186 0.232654 0.233449 0.234244 0.235039 0.235834 0.236629 0.237424
0.23822 0.239015 0.23981 0.240605 0.241401 0.242196 0.242992 0.243787 0.244583 0.245378
0.246174 0.246969 0.247765 0.248561 0.249357 0.250153 0.250948 0.251744 0.25254 0.253337
0.254133 0.254929 0.255725 0.256521 0.257318 0.258114 0.258911 0.259707 0.260504 0.2613
0.262097 0.262894 0.263691 0.264487 0.265284 0.266081 0.266878 0.267676 0.268473 0.26927
0.270067 0.270865 0.271662 0.27246 0.273257 0.274055 0.274853 0.275651 0.276449 0.277246
0.278045 0.278843 0.279641 0.280439 0.281237 0.282036 0.282834 0.283633 0.284432 0.28523
0.286029 0.286828 0.287627 0.288426 0.289225 0.290024 0.290824 0.291623 0.292423 0.293222
0.294022 0.294822 0.295622 0.296422 0.297222 0.298022 0.298822 0.299622 0.300423 0.301223
0.302024 0.302825 0.303626 0.304427 0.305228 0.306029 0.30683 0.307631 0.308433 0.309235
0.310036 0.310838 0.31164 0.312442 0.313244 0.314047 0.314849 0.315652 0.316454 0.317257
0.31806 0.318863 0.319666 0.320469 0.321273 0.322076 0.32288 0.323684 0.324488 0.325292
0.326096 0.326901 0.327705 0.32851 0.329315 0.330119 0.330925 0.33173 0.332535 0.333341
0.334146 0.334952 0.335758 0.336564 0.337371 0.338177 0.338984 0.339791 0.340597 0.341405
0.342212 0.343019 0.343827 0.344635 0.345443 0.346251 0.347059 0.347868 0.348677 0.349485
0.350295 0.351104 0.351913 0.352723 0.353533 0.354343 0.355153 0.355963 0.356774 0.357585
0.358396 0.359207 0.360019 0.36083 0.361642 0.362454 0.363267 0.364079 0.364892 0.365705
0.366518 0.367332 0.368145 0.368959 0.369773 0.370588 0.371402 0.372217 0.373032 0.373848
0.374663 0.375479 0.376295 0.377112 0.377928 0.378745 0.379562 0.38038 0.381197 0.382015
0.382833 0.383652 0.384471 0.38529 0.386109 0.386928 0.387748 0.388568 0.389389 0.39021
0.391031 0.391852 0.392674 0.393496 0.394318 0.39514 0.395963 0.396786 0.39761 0.398434
0.399258 0.400082 0.400907 0.401732 0.402557 0.403383 0.404209 0.405036 0.405862 0.40669
0.407517 0.408345 0.409173 0.410001 0.41083 0.411659 0.412489 0.413319 0.414149 0.41498
0.41581 0.416642 0.417473 0.418306 0.419138 0.419971 0.420804 0.421637 0.422471 0.423306
0.42414 0.424975 0.425811 0.426647 0.427483 0.42832 0.429157 0.429994 0.430832 0.43167
0.432508 0.433347 0.434187 0.435026 0.435867 0.436707 0.437548 0.438389 0.439231 0.440073
0.440916 0.441759 0.442602 0.443446 0.44429 0.445134 0.445979 0.446824 0.44767 0.448516
0.449363 0.45021 0.451057 0.451905 0.452753 0.453602 0.45445 0.4553 0.45615 0.457
0.457851 0.458702 0.459553 0.460405 0.461258 0.462111 0.462964 0.463818 0.464672 0.465528
0.466383 0.467239 0.468096 0.468953 0.469811 0.47067 0.471529 0.472389 0.47325 0.474113
0.474975 0.475839 0.476704 0.477569 0.478437 0.479306 0.480174 0.481044 0.481915 0.48279
0.483666 0.484538 0.485407 0.486279 0.48716 0.488046 0.488909 0.48975 0.490594 0.491464
0 0.000331351 0.000662723 0.000994118 0.00132553 0.00165697 0.00177771 0.00189845 0.0020192 0.00213997
0.00225899 0.00253354 0.00280817 0.00308288 0.00335767 0.00363255 0.00402808 0.00442366 0.00481929 0.00521496
0.00561067 0.00600641 0.00640217 0.00679796 0.00719377 0.00758961 0.0079853 0.00838102 0.00877678 0.00917255
0.00956836 0.0099621 0.0103559 0.0107497 0.0111435 0.0115374 0.0119244 0.0123114 0.0126985 0.0130855
0.0134725 0.0138665 0.0142604 0.0146544 0.0150484 0.0154424 0.0158514 0.0162605 0.0166696 0.0170787
0.0174879 0.0178838 0.0182797 0.0186757 0.0190718 0.0194679 0.0198637 0.0202596 0.0206556 0.0210517
0.0214478 0.0218435 0.0222393 0.0226352 0.0230312 0.0234273 0.0238228 0.0242186 0.0246143 0.0250102
0.0254062 0.0258015 0.026197 0.0265926 0.0269882 0.027384 0.027779 0.0281742 0.0285696 0.0289651
0.0293607 0.0297552 0.0301501 0.0305452 0.0309405 0.031336 0.0317302 0.0321249 0.03252 0.0329153
0.0333109 0.0337039 0.0340976 0.0344922 0.0348875 0.0352833 0.0356773 0.0360713 0.036466 0.0368597
0.0372547 0.0374534 0.0376524 0.0378512 0.03805 0.0382492 0.0384457 0.0386414 0.0388366 0.0390312
0.0392257 0.0394211 0.0396149 0.0398082 0.0400009 0.0401928 0.0404158 0.0406378 0.0408596 0.0410811
0.0413008 0.0415171 0.0417335 0.0419501 0.0421664 0.0423825 0.0425859 0.0427895 0.0429935 0.0431976
0.043402 0.0436007 0.0437996 0.0439995 0.0442001 0.044401 0.0445987 0.0447972 0.0449966 0.045196
0.0453944 0.0455917 0.0457887 0.0459853 0.0461815 0.0463773 0.0465711 0.0467649 0.0469587 0.0471524
0.0473293 0.0473328 0.0473363 0.0473398 0.0473433 0.0473468 0.0475414 0.0477362 0.0479322 0.0481286
0.0483254 0.0485226 0.0487204 0.0489193 0.0491184 0.0493164 0.0495155 0.0497145 0.0499137 0.0501129
0.0503123 0.0505125 0.0507132 0.0509151 0.0511169 0.0513174 0.0515164 0.0517149 0.051913 0.0521108
0.0523075 0.0525031 0.0526987 0.0528942 0.0530896 0.053285 0.0534824 0.0536798 0.0538772 0.0540744
0.0542716 0.0544686 0.0546656 0.0548624 0.0550593 0.0552561 0.0554496 0.0556433 0.0558372 0.0560314
0.0562619 0.0563597 0.0564574 0.0565552 0.056653 0.0567509 0.0568397 0.0569285 0.0570172 0.0571058
0.0571944 0.0572909 0.0573875 0.0574841 0.0575807 0.0576772 0.0577757 0.0578741 0.0579725 0.0580708
0.058169 0.0582674 0.0583656 0.0584638 0.0585619 0.0586599 0.0587573 0.0588547 0.0589519 0.0590491
0.0591462 0.0592431 0.0593399 0.0594365 0.0595331 0.0596297 0.0597268 0.059824 0.0599212 0.0600183
0.0601154 0.0602124 0.0603093 0.0604062 0.0605031 0.0605999 0.0606965 0.0607932 0.0608899 0.0609867
0.0610836 0.0611792 0.0612749 0.0613707 0.0614666 0.0615625 0.0616577 0.0617529 0.0618481 0.0619435
0.0620391 0.0621354 0.0622322 0.0623292 0.0624265 0.0625241 0.0626239 0.0627244 0.0628247 0.0629251
0.0630254 0.0632239 0.0634227 0.0636219 0.0638214 0.0640212 0.0641199 0.0642197 0.0643196 0.0644198
0.0645203 0.0646212 0.0647223 0.0648232 0.0649238 0.0650242 0.0652234 0.0654222 0.0656205 0.0658186
0.066016 0.0662127 0.0664093 0.0666059 0.0668025 0.0669991 0.0671954 0.0673917 0.067588 0.0677843
0.0679805 0.068178 0.0683754 0.0685729 0.0687704 0.0689679 0.0691666 0.0693653 0.0695648 0.0697648
0.0699651 0.070165 0.0703651 0.0705665 0.070768 0.0709684 0.0711684 0.0713676 0.0715667 0.0717655
0.071964 0.0721626 0.0723622 0.0725626 0.0727634 0.0729638 0.0730654 0.0731681 0.0732716 0.0733752
0.0734788 0.0735814 0.0736848 0.0737884 0.0738917 0.0739945 0.0741975 0.0744002 0.0746028 0.0748051
0.0750073 0.0751085 0.0752109 0.075314 0.0754173 0.0755204 0.0756207 0.0757219 0.0758232 0.0759243
0.0760245 0.0762209 0.076416 0.0766106 0.0768048 0.0769984 0.0771936 0.0773887 0.0775836 0.0777782
0.0779725 0.0781706 0.0783688 0.078567 0.0787652 0.0789634 0.0790907 0.0792181 0.0793456 0.0794731
0.079597 0.0796833 0.0797696 0.0798558 0.079942 0.0800283 0.0802425 0.0804574 0.0806736 0.0808903
0.0811082 0.0813043 0.0815021 0.0817009 0.0819001 0.0820997 0.0822977 0.0824958 0.0826939 0.0828924
0.0830908 0.0832899 0.083489 0.0836885 0.0838884 0.0840883 0.0842886 0.0844889 0.0846892 0.0848893
0.0850893 0.0854846 0.0858791 0.0862727 0.0866653 0.0870573 0.0874529 0.0878483 0.0882434 0.0886382
0.0890327 0.0894282 0.0898235 0.0902187 0.0906136 0.0910083 0.0914038 0.0917992 0.0921945 0.0925896
0.0929846 0.0933804 0.0937762 0.0941718 0.0945674 0.0949628 0.095359 0.0957551 0.0961511 0.096547
0.0969429 0.0973393 0.0977356 0.0981319 0.0985282 0.0989243 0.0993209 0.0997173 0.100114 0.10051
0.100907 0.101303 0.1017 0.102096 0.102493 0.102889 0.103286 0.103683 0.104079 0.104476
0.104872 0.105283 0.105695 0.106106 0.106517 0.106928 0.107317 0.107706 0.108095 0.108484
0.108873 0.109263 0.109654 0.110045 0.110436 0.110827 0.111223 0.111618 0.112014 0.11241
0.112805 0.113202 0.113598 0.113995 0.114391 0.114788 0.115184 0.115581 0.115977 0.116374
0.116771 0.117167 0.117564 0.11796 0.118357 0.118753 0.11915 0.119546 0.119943 0.120339
0.120736 0.121132 0.121528 0.121925 0.122321 0.122718 0.122976 0.123234 0.123491 0.123749
0.124007 0.124146 0.124284 0.124423 0.124561 0.1247 0.125096 0.125493 0.125889 0.126286
0.126682 0.127078 0.127475 0.127871 0.128268 0.128664 0.12906 0.129457 0.129853 0.130249
0.130646 0.131042 0.131439 0.131835 0.132231 0.132628 0.133024 0.13342 0.133817 0.134213
0.134609 0.135006 0.135402 0.135798 0.136195 0.136591 0.136987 0.137384 0.13778 0.138176
0.138573 0.138969 0.139365 0.139762 0.140158 0.140554 0.140951 0.141347 0.141743 0.142139
0.142536 0.142932 0.143328 0.143725 0.144121 0.144517 0.144914 0.14531 0.145706 0.146103
0.146499 0.146895 0.147292 0.147688 0.148084 0.14848 0.148877 0.149273 0.149669 0.150066
0.150462 0.150858 0.151255 0.151651 0.152047 0.152444 0.15284 0.153236 0.153633 0.154029
0.154425 0.154822 0.155218 0.155614 0.156011 0.156407 0.156803 0.1572 0.157596 0.157992
0.158389 0.158785 0.159181 0.159578 0.159974 0.16037 0.160767 0.161163 0.16156 0.161956
0.162352 0.162749 0.163145 0.163541 0.163938 0.164334 0.16473 0.165127 0.165523 0.16592
0.166316 0.166712 0.167109 0.167505 0.167902 0.168298 0.168694 0.169091 0.169487 0.169884
0.17028 0.170677 0.171073 0.171469 0.171866 0.172262 0.172659 0.173055 0.173452 0.173848
0.174245 0.174641 0.175037 0.175434 0.17583 0.176227 0.176623 0.17702 0.177416 0.177813
0.178209 0.178606 0.179002 0.179399 0.179795 0.180192 0.180588 0.180985 0.181381 0.181778
0.182175 0.182571 0.182968 0.183364 0.183761 0.184157 0.184554 0.18495 0.185347 0.185744
0.18614 0.186537 0.186933 0.18733 0.187727 0.188123 0.18852 0.188916 0.189313 0.18971
0.190106 0.190503 0.1909 0.191296 0.191693 0.192089 0.192486 0.192883 0.19328 0.193676
0.194073 0.19447 0.194866 0.195263 0.19566 0.196056 0.196453 0.19685 0.197247 0.197643
0.19804 0.198437 0.198834 0.19923 0.199627 0.200024 0.200421 0.200817 0.201214 0.201611
0.202008 0.202405 0.202801 0.203198 0.203595 0.203992 0.204389 0.204786 0.205183 0.205579
0.205976 0.206373 0.20677 0.207167 0.207564 0.207961 0.208358 0.208755 0.209151 0.209548
0.209945 0.210342 0.210739 0.211136 0.211533 0.21193 0.212327 0.212724 0.213121 0.213518
0.213915 0.214312 0.214709 0.215106 0.215503 0.2159 0.216297 0.216695 0.217092 0.217489
0.217886 0.218283 0.21868 0.219077 0.219474 0.219871 0.220269 0.220666 0.221063 0.22146
0.221857 0.222254 0.222652 0.223049 0.223446 0.223843 0.22424 0.224638 0.225035 0.225432
0.225829 0.226227 0.226624 0.227021 0.227419 0.227816 0.228213 0.228611 0.229008 0.229405
0.229803 0.2302 0.230597 0.230995 0.231392 0.23179 0.232187 0.232584 0.232982 0.233379
0.233777 0.234174 0.234572 0.234969 0.235367 0.235764 0.236162 0.236559 0.236957 0.237354
0.237752 0.23815 0.238547 0.238945 0.239342 0.23974 0.240138 0.240535 0.240933 0.241331
0.241728 0.242126 0.242524 0.242921 0.243319 0.243717 0.244115 0.244512 0.24491 0.245308
0.245706 0.246103 0.246501 0.246899 0.247297 0.247695 0.248093 0.248491 0.248888 0.249286
0.249684 0.250082 0.25048 0.250878 0.251276 0.251674 0.252072 0.25247 0.252868 0.253266
0.253664 0.254062 0.25446 0.254858 0.255256 0.255655 0.256053 0.256451 0.256849 0.257247
0.257645 0.258044 0.258442 0.25884 0.259238 0.259636 0.260035 0.260433 0.260831 0.26123
0.261628 0.262026 0.262425 0.262823 0.263221 0.26362 0.264018 0.264417 0.264815 0.265214
0.265612 0.266011 0.266409 0.266808 0.267206 0.267605 0.268003 0.268402 0.268801 0.269199
0.269598 0.269996 0.270395 0.270794 0.271193 0.271591 0.27199 0.272389 0.272788 0.273186
0.273585 0.273984 0.274383 0.274782 0.275181 0.27558 0.275978 0.276377 0.276776 0.277175
0.277574 0.277973 0.278372 0.278771 0.27917 0.27957 0.279969 0.280368 0.280767 0.281166
0.281565 0.281964 0.282364 0.282763 0.283162 0.283561 0.283961 0.28436 0.284759 0.285159
0.285558 0.285958 0.286357 0.286756 0.287156 0.287555 0.287955 0.288354 0.288754 0.289154
0.289553 0.289953 0.290352 0.290752 0.291152 0.291551 0.291951 0.292351 0.292751 0.293151
0.29355 0.29395 0.29435 0.29475 0.29515 0.29555 0.29595 0.29635 0.29675 0.29715
0.29755 0.29795 0.29835 0.29875 0.29915 0.29955 0.299951 0.300351 0.300751 0.301151
0.301552 0.301952 0.302352 0.302753 0.303153 0.303553 0.303954 0.304354 0.304755 0.305155
0.305556 0.305957 0.306357 0.306758 0.307158 0.307559 0.30796 0.308361 0.308761 0.309162
0.309563 0.309964 0.310365 0.310766 0.311167 0.311568 0.311969 0.31237 0.312771 0.313172
0.313573 0.313974 0.314375 0.314776 0.315178 0.315579 0.31598 0.316381 0.316783 0.317184
0.317586 0.317987 0.318389 0.31879 0.319192 0.319593 0.319995 0.320396 0.320798 0.3212
0.321602 0.322003 0.322405 0.322807 0.323209 0.323611 0.324013 0.324415 0.324817 0.325219
0.325621 0.326023 0.326425 0.326827 0.327229 0.327632 0.328034 0.328436 0.328839 0.329241
0.329643 0.330046 0.330448 0.330851 0.331254 0.331656 0.332059 0.332462 0.332864 0.333267
0.33367 0.334073 0.334476 0.334878 0.335281 0.335684 0.336087 0.336491 0.336894 0.337297
0.3377 0.338103 0.338506 0.33891 0.339313 0.339717 0.34012 0.340523 0.340927 0.341331
0.341734 0.342138 0.342542 0.342945 0.343349 0.343753 0.344157 0.344561 0.344965 0.345369
0.345773 0.346177 0.346581 0.346985 0.347389 0.347793 0.348198 0.348602 0.349007 0.349411
0.349815 0.35022 0.350625 0.351029 0.351434 0.351839 0.352243 0.352648 0.353053 0.353458
0.353863 0.354268 0.354673 0.355078 0.355483 0.355889 0.356294 0.356699 0.357105 0.35751
0.357916 0.358321 0.358727 0.359132 0.359538 0.359944 0.36035 0.360755 0.361161 0.361567
0.361973 0.362379 0.362785 0.363192 0.363598 0.364004 0.36441 0.364817 0.365223 0.36563
0.366036 0.366443 0.36685 0.367256 0.367663 0.36807 0.368477 0.368884 0.369291 0.369698
0.370105 0.370512 0.37092 0.371327 0.371734 0.372142 0.372549 0.372957 0.373364 0.373772
0.37418 0.374588 0.374995 0.375403 0.375811 0.37622 0.376628 0.377036 0.377444 0.377852
0.378261 0.378669 0.379078 0.379486 0.379895 0.380304 0.380713 0.381121 0.38153 0.381939