# vtk DataFile Version 2.0
tracks
ASCII
DATASET POLYDATA
POINTS 25060 float
-1.001 -0.05 0.0011 -0.99549 -0.0500011 0.00110424 -0.989981 -0.0500023 0.00110854 -0.984471 -0.0500035
0.0011129 -0.978962 -0.0500047 0.00111731 -0.973452 -0.050006 0.00112176 -0.966891 -0.0500073 0.00112707
-0.960329 -0.0500088 0.00113239 -0.953767 -0.0500102 0.0011378 -0.947206 -0.0500118 0.00114328 -0.940644
-0.0500134 0.00114882 -0.934083 -0.0500148 0.00115448 -0.927521 -0.0500165 0.00116028 -0.920959 -0.0500181
0.00116617 -0.914397 -0.0500198 0.00117215 -0.907836 -0.0500216 0.00117823 -0.901275 -0.0500233 0.00118437
-0.894715 -0.0500251 0.00119049 -0.888154 -0.0500269 0.00119672 -0.881594 -0.0500289 0.00120306 -0.875033
-0.0500309 0.00120948 -0.868472 -0.0500329 0.0012161 -0.861912 -0.0500349 0.00122285 -0.855351 -0.0500371
0.00122972 -0.84879 -0.0500394 0.0012367 -0.84223 -0.0500417 0.0012438 -0.835672 -0.050044 0.001251
-0.829114 -0.0500464 0.00125813 -0.822556 -0.050049 0.00126539 -0.815998 -0.0500516 0.00127279 -0.80944
-0.0500544 0.00128029 -0.802897 -0.0500571 0.00128804 -0.796353 -0.05006 0.00129593 -0.78981 -0.050063
0.00130395 -0.783267 -0.0500662 0.00131211 -0.776724 -0.0500695 0.00132042 -0.77029 -0.0500727 0.00132874
-0.763856 -0.0500761 0.0013369 -0.757423 -0.0500797 0.00134521 -0.750989 -0.0500835 0.00135368 -0.744555
-0.0500874 0.00136228 -0.737905 -0.0500915 0.00137154 -0.731255 -0.0500957 0.00138095 -0.724606 -0.0501003
0.00139055 -0.717956 -0.0501051 0.00140033 -0.711306 -0.0501101 0.00141031 -0.704715 -0.0501151 0.00142039
-0.698124 -0.0501204 0.00143029 -0.691533 -0.050126 0.0014404 -0.684942 -0.050132 0.00145072 -0.678351
-0.0501383 0.00146126 -0.671806 -0.0501446 0.00147218 -0.665261 -0.0501511 0.00148319 -0.658716 -0.050158
0.00149441 -0.65217 -0.0501654 0.00150584 -0.645625 -0.0501733 0.00151749 -0.639089 -0.0501812 0.00152942
-0.632552 -0.0501897 0.00154093 -0.626016 -0.0501988 0.00155272 -0.619479 -0.0502084 0.00156478 -0.612943
-0.0502187 0.00157712 -0.606414 -0.0502291 0.00159013 -0.599885 -0.0502399 0.00160304 -0.593356 -0.0502515
0.0016162 -0.586827 -0.050264 0.00162962 -0.580297 -0.0502774 0.00164329 -0.573782 -0.0502911 0.00165741
-0.567267 -0.0503059 0.00167041 -0.560752 -0.0503219 0.0016837 -0.554237 -0.0503391 0.00169727 -0.547722
-0.0503576 0.00171113 -0.541221 -0.0503764 0.00172609 -0.53472 -0.0503961 0.00174032 -0.52822 -0.0504178
0.00175477 -0.521719 -0.0504415 0.00176944 -0.515218 -0.050467 0.00178433 -0.508738 -0.050493 0.0017999
-0.502257 -0.0505222 0.00181173 -0.495777 -0.0505545 0.00182367 -0.489296 -0.0505899 0.00183572 -0.482815
-0.0506285 0.00184788 -0.476355 -0.0506674 0.00186306 -0.469895 -0.0507106 0.00187591 -0.463435 -0.0507588
0.00188912 -0.456974 -0.0508122 0.00190271 -0.450514 -0.0508706 0.00191667 -0.444098 -0.0509287 0.0019334
-0.437682 -0.0509961 0.00194729 -0.431266 -0.0510752 0.00196115 -0.424851 -0.0511642 0.00197504 -0.418434
-0.0512633 0.00198898 -0.415232 -0.0513194 0.00199571 -0.41203 -0.0513804 0.00200171 -0.408828 -0.0514464
0.00200749 -0.405627 -0.0515182 0.00201308 -0.402424 -0.0515954 0.00201916 -0.399207 -0.0516782 0.00202677
-0.39599 -0.0517754 0.00203299 -0.392773 -0.0518831 0.00203883 -0.389557 -0.0519987 0.00204494 -0.386336
-0.0521201 0.00205119 -0.38315 -0.0522422 0.00205721 -0.379965 -0.0523857 0.0020646 -0.376781 -0.0525491
0.00207251 -0.373599 -0.0527314 0.00208041 -0.370405 -0.0529314 0.00208931 -0.367157 -0.053149 0.00210119
-0.363913 -0.0534128 0.00211201 -0.360669 -0.0536885 0.00212256 -0.357426 -0.0539661 0.00213307 -0.35416
-0.0542486 0.00214303 -0.350768 -0.0545472 0.00214797 -0.347373 -0.0548186 0.00215569 -0.343978 -0.055073
0.00216368 -0.340581 -0.055313 0.00217135 -0.337202 -0.0555445 0.00217889 -0.333571 -0.0558089 0.00218774
-0.329935 -0.0559811 0.00219154 -0.326298 -0.056116 0.00219402 -0.32266 -0.0562318 0.00219639 -0.31904
-0.056335 0.0021994 -0.315547 -0.0564383 0.00220658 -0.312052 -0.0565169 0.00220708 -0.308558 -0.056582
0.00220603 -0.305063 -0.056639 0.0022047 -0.30157 -0.0566941 0.00220425 -0.298204 -0.0567636 0.00220811
-0.294838 -0.0568001 0.00220631 -0.291471 -0.0568257 0.00220321 -0.288105 -0.0568475 0.00220026 -0.28474
-0.0568685 0.0021991 -0.281419 -0.0568974 0.00220488 -0.278098 -0.0569083 0.00220316 -0.274777 -0.0569113
0.0021996 -0.271456 -0.0569096 0.00219592 -0.268135 -0.0569088 0.00219325 -0.264847 -0.0569274 0.00219537
-0.261559 -0.0569218 0.00219248 -0.258271 -0.0569107 0.00218842 -0.254983 -0.0568999 0.00218436 -0.251694
-0.0568919 0.00218184 -0.248411 -0.0568956 0.00218591 -0.245129 -0.0568842 0.00218319 -0.241846 -0.0568668
0.00217863 -0.238563 -0.0568461 0.00217378 -0.23528 -0.0568276 0.00216973 -0.232 -0.0568288 0.00216996
-0.228721 -0.0568093 0.00216556 -0.225441 -0.0567862 0.00216 -0.222162 -0.0567655 0.00215444 -0.218882
-0.0567518 0.00215001 -0.2156 -0.0567589 0.00214998 -0.212318 -0.0567448 0.00214543 -0.209036 -0.0567251
0.00213963 -0.205755 -0.0567051 0.00213371 -0.202472 -0.0566883 0.00212954 -0.199201 -0.0566849 0.00213258
-0.195929 -0.0566686 0.00212824 -0.192658 -0.0566494 0.00212204 -0.189386 -0.0566306 0.00211587 -0.186115
-0.0566161 0.00211183 -0.182832 -0.0566151 0.002116 -0.179549 -0.0566011 0.00211128 -0.176266 -0.0565831
0.00210404 -0.172984 -0.0565645 0.00209654 -0.169701 -0.05655 0.00209013 -0.166404 -0.056554 0.00208885
-0.163107 -0.0565403 0.00208209 -0.159809 -0.0565237 0.00207414 -0.156512 -0.0565085 0.00206618 -0.153214
-0.0564974 0.00206015 -0.149939 -0.0564997 0.00206252 -0.146664 -0.0564902 0.00205589 -0.143389 -0.0564792
0.00204714 -0.140114 -0.0564693 0.002038 -0.136839 -0.0564627 0.00202984 -0.13359 -0.0564684 0.00202838
-0.130341 -0.056465 0.00201891 -0.127092 -0.0564617 0.00200788 -0.123843 -0.0564599 0.00199639 -0.120594
-0.0564605 0.00198507 -0.117313 -0.0564718 0.00197923 -0.114031 -0.0564778 0.00196677 -0.11075 -0.0564862
0.0019542 -0.107468 -0.0564976 0.00194203 -0.104187 -0.0565119 0.00193026 -0.10092 -0.0565367 0.00192477
-0.0976536 -0.0565656 0.00191099 -0.0943869 -0.0565974 0.00189466 -0.0911203 -0.0566316 0.00187976 -0.0878538
-0.0566698 0.00186302 -0.0862118 -0.0566921 0.00185466 -0.0845698 -0.0567139 0.00184423 -0.0829279 -0.0567357
0.00183255 -0.0812859 -0.0567583 0.00182065 -0.079644 -0.056783 0.0018099 -0.0779946 -0.0568108 0.00180143
-0.0763452 -0.056839 0.00179185 -0.0746958 -0.056868 0.00178176 -0.0730464 -0.0568985 0.00177216 -0.071397
-0.0569314 0.00176361 -0.0697381 -0.0569671 0.00175647 -0.0680792 -0.0570039 0.00174845 -0.0664204 -0.0570419
0.00173982 -0.0647616 -0.0570815 0.00173103 -0.0631026 -0.0571242 0.00172315 -0.0614557 -0.0571701 0.00171676
-0.0598089 -0.0572164 0.00170891 -0.0581621 -0.0572634 0.00170007 -0.0565153 -0.057312 0.00169116 -0.0548683
-0.0573637 0.00168234 -0.0532233 -0.0574186 0.00167368 -0.0515783 -0.0574754 0.00166385 -0.0499334 -0.057534
0.00165302 -0.0482886 -0.0575949 0.00164163 -0.0466431 -0.0576606 0.00163181 -0.0450071 -0.0577318 0.0016243
-0.0433711 -0.0578007 0.00161375 -0.041735 -0.0578682 0.00160089 -0.0400989 -0.0579372 0.00158782 -0.0384631
-0.0580118 0.00157495 -0.0368461 -0.0580924 0.00156254 -0.035229 -0.058171 0.00154869 -0.0336119 -0.0582479
0.00153347 -0.0319948 -0.058325 0.00151731 -0.030378 -0.0584119 0.00150368 -0.028778 -0.0585093 0.00149334
-0.0271771 -0.058589 0.00147953 -0.0255754 -0.0586536 0.00146286 -0.0239737 -0.0587156 0.00144603 -0.022378
-0.0587946 0.00143002 -0.0208127 -0.0588931 0.00141529 -0.0192458 -0.058964 0.00140019 -0.0176782 -0.0590155
0.00138463 -0.0161106 -0.0590641 0.00136842 -0.0145609 -0.0591195 0.00135217 -0.01279 -0.0592068 0.00133374
-0.0110177 -0.0592551 0.00131564 -0.00924497 -0.059289 0.00129789 -0.0074722 -0.0593187 0.00128058 -0.00570675
-0.0593457 0.00126387 -0.00397231 -0.0593932 0.0012494 -0.0022373 -0.0594087 0.00123373 -0.000502254 -0.0594197
0.00121756 0.00123281 -0.0594261 0.00120088 0.00296658 -0.059428 0.00118401 0.00465497 -0.0594471 0.00116568
0.00634347 -0.0594412 0.00114903 0.00803197 -0.0594335 0.00113249 0.00972045 -0.0594239 0.00111617 0.0114086
-0.0594123 0.00110008 0.0131396 -0.059423 0.00108542 0.0148704 -0.0594076 0.00106783 0.0166013 -0.0593887
0.00104935 0.0183321 -0.0593669 0.00103005 0.0200673 -0.0593477 0.00100998 0.0216705 -0.0593487 0.0009903
0.0232737 -0.0593325 0.00097021 0.0248768 -0.0593107 0.000949968 0.0264798 -0.0592892 0.000929898 0.0280852
-0.059273 0.000910296 0.0296715 -0.0592706 0.000891968 0.0312576 -0.0592541 0.000872281 0.0328438 -0.0592319
0.000851814 0.0344299 -0.0592086 0.000830883 0.0360169 -0.0591881 0.000809346 0.0376212 -0.059178 0.000786565
0.0392253 -0.0591579 0.000764683 0.0408294 -0.0591355 0.000743215 0.0424336 -0.0591138 0.000722232 0.044038
-0.0590953 0.000701849 0.0456567 -0.0590861 0.000682216 0.0472754 -0.0590669 0.000661605 0.0488939 -0.0590442
0.000640458 0.0505125 -0.0590201 0.00061891 0.0521316 -0.0589961 0.0005969 0.053758 -0.0589784 0.000573904
0.0553843 -0.0589518 0.000551698 0.0570107 -0.0589235 0.000529793 0.058637 -0.0588951 0.00050828 0.0602637
-0.0588679 0.000487129 0.0618925 -0.0588488 0.000466203 0.0635211 -0.0588208 0.000444793 0.0651497 -0.0587903
0.00042298 0.0667782 -0.0587584 0.000400774 0.0684075 -0.0587256 0.000378064 0.0700329 -0.0586982 0.000353735
0.0716583 -0.0586641 0.000331339 0.0732837 -0.05863 0.000309252 0.0749091 -0.0585961 0.000287522 0.0765349
-0.0585627 0.00026608 0.0781579 -0.0585351 0.00024291 0.0797808 -0.0585008 0.000221428 0.0814037 -0.058465
0.000199656 0.0830266 -0.0584279 0.00017755 0.0846501 -0.0583895 0.000155275 0.086286 -0.0583551 0.000130926
0.0879218 -0.0583147 0.000110994 0.0895576 -0.0582755 9.15987e-05 0.0911935 -0.0582381 7.2825e-05 0.0928298
-0.0582028 5.45046e-05 0.0961334 -0.0581473 1.31581e-05 0.0994369 -0.0580912 -3.05115e-05 0.102741 -0.0580365
-7.66593e-05 0.106044 -0.0579843 -0.000122461 0.109348 -0.0579335 -0.000168153 0.112674 -0.0578827 -0.000211776
0.116001 -0.0578358 -0.000254915 0.119328 -0.0577898 -0.000297126 0.122655 -0.0577445 -0.000342395 0.125982
[...]
POINT_DATA 25060
FIELD attributes 4
age 1 25060 float
0 0.000332661 0.000665333 0.000998014 0.00133071 0.00166341 0.00205965 0.00245591 0.00285219 0.00324849 0.0036448
0.00404114 0.00443751 0.0048339 0.0052303 0.00562673 0.0060231 0.00641949 0.00681591 0.00721236 0.00760882
0.00800532 0.00840186 0.00879842 0.009195 0.00959162 0.00998809 0.0103846 0.0107811 0.0111777 0.0115743
0.0119701 0.0123658 0.0127617 0.0131575 0.0135534 0.0139427 0.0143321 0.0147215 0.0151109 0.0155004
0.015903 0.0163057 0.0167084 0.0171112 0.017514 0.0179133 0.0183127 0.0187122 0.0191117 0.0195113
0.0199082 0.0203051 0.0207022 0.0210993 0.0214965 0.0218933 0.0222902 0.0226871 0.0230842 0.0234814
0.0238782 0.0242752 0.0246723 0.0250695 0.0254669 0.0258635 0.0262603 0.0266573 0.0270545 0.0274518
0.0278483 0.0282453 0.0286424 0.0290398 0.0294374 0.0298339 0.030231 0.0306283 0.031026 0.0314239
0.0318207 0.0322185 0.0326167 0.0330153 0.0334143 0.0338107 0.0342087 0.0346074 0.0350066 0.0354064
0.0356065 0.0358068 0.0360073 0.0362081 0.0364092 0.0366117 0.0368136 0.0370151 0.0372164 0.0374182
0.0376187 0.0378178 0.0380162 0.0382142 0.0384133 0.0386177 0.038818 0.0390169 0.0392152 0.0394147
0.0396241 0.0398304 0.0400359 0.0402411 0.0404443 0.0406601 0.0408779 0.0410962 0.0413143 0.0415315
0.0417435 0.0419531 0.0421624 0.0423716 0.0425812 0.0427854 0.0429874 0.0431889 0.0433904 0.0435926
0.0437951 0.0439946 0.0441937 0.0443928 0.0445926 0.0447931 0.0449911 0.0451885 0.0453859 0.045584
0.045785 0.045983 0.0461804 0.0463778 0.0465761 0.0467771 0.0469753 0.0471728 0.0473702 0.0475684
0.0477697 0.0479681 0.0481659 0.0483637 0.0485624 0.0487636 0.0489618 0.0491592 0.0493566 0.0495549
0.0497571 0.0499562 0.0501546 0.0503531 0.0505524 0.0507558 0.0509562 0.0511558 0.0513555 0.0515559
0.0517579 0.0519571 0.0521557 0.0523545 0.0525539 0.0527545 0.0529524 0.0531501 0.0533479 0.0535462
0.0537495 0.05395 0.0541507 0.0543516 0.0545526 0.0547534 0.0549539 0.0551546 0.0553557 0.0555566
0.0556578 0.0557589 0.05586 0.0559612 0.0560625 0.0561646 0.0562664 0.0563682 0.0564699 0.0565716
0.056674 0.0567764 0.0568788 0.0569811 0.0570837 0.0571857 0.0572875 0.0573891 0.0574906 0.0575922
0.0576937 0.0577952 0.0578965 0.0579978 0.0580993 0.0582005 0.0583014 0.058402 0.0585026 0.058603
0.0587023 0.0588015 0.0589006 0.0589998 0.0590989 0.0591968 0.0592948 0.0593928 0.0594906 0.0595875
0.059682 0.0597769 0.0598719 0.0599669 0.0600606 0.0601673 0.0602743 0.0603812 0.0604879 0.060594
0.0606982 0.0608025 0.0609067 0.061011 0.0611152 0.0612169 0.0613182 0.0614194 0.0615205 0.0616214
0.0617252 0.0618283 0.0619314 0.0620344 0.0621377 0.0622339 0.0623293 0.0624243 0.0625193 0.0626147
0.0627095 0.0628037 0.0628977 0.0629917 0.0630861 0.0631826 0.0632781 0.0633734 0.0634687 0.0635643
0.0636615 0.0637581 0.0638545 0.063951 0.0640478 0.064146 0.0642433 0.0643404 0.0644377 0.0645351
0.0646336 0.0647315 0.0648293 0.0649273 0.0650256 0.0651247 0.0652229 0.0653211 0.0654194 0.0655178
0.0656172 0.0657157 0.0658142 0.0659129 0.0660117 0.0661123 0.0662118 0.0663114 0.066411 0.0665108
0.0667145 0.0669184 0.0671226 0.0673269 0.0675316 0.067738 0.0679445 0.0681513 0.0683586 0.0685664
0.068783 0.0689862 0.0691895 0.0693928 0.0695965 0.0698093 0.0700155 0.0702215 0.0704275 0.0706347
0.0708548 0.0710625 0.071269 0.0714756 0.0716834 0.0718974 0.0721051 0.072312 0.0725192 0.0727293
0.0729509 0.0731603 0.0733669 0.0735734 0.0737826 0.0740041 0.0742142 0.0744213 0.0746285 0.0748391
0.0750616 0.075273 0.075481 0.0756888 0.0758987 0.0761151 0.0763251 0.076533 0.0767411 0.076952
0.0771709 0.0773828 0.0775917 0.0778005 0.0780118 0.0782311 0.0784438 0.0786538 0.0788639 0.0790785
0.0793079 0.079528 0.0797434 0.0799588 0.0801775 0.0804122 0.0806404 0.0808651 0.0810902 0.081322
0.0815692 0.0818053 0.0820349 0.0822646 0.0824984 0.0827315 0.0829588 0.0831835 0.0834093 0.0836405
0.0838635 0.0840784 0.0842892 0.0845003 0.0847131 0.0849322 0.0851465 0.0853593 0.0855725 0.085788
0.0860102 0.0862245 0.0864362 0.0866481 0.0868621 0.0873018 0.0877396 0.0881807 0.088624 0.0890703
0.0895067 0.0899581 0.0904096 0.0908609 0.091312 0.0917506 0.0922025 0.0926549 0.093107 0.0935587
0.0939955 0.0944473 0.0949012 0.0953549 0.0958074 0.0962483 0.0967011 0.0971554 0.0976095 0.0980611
0.0984979 0.0989493 0.0994034 0.0998574 0.100309 0.10075 0.101202 0.101656 0.10211 0.102562
0.103002 0.103453 0.103907 0.104361 0.104812 0.105258 0.105714 0.106174 0.106634 0.107089
0.10753 0.107984 0.108442 0.108901 0.109356 0.109788 0.110231 0.110677 0.111123 0.111564
0.111996 0.112442 0.112892 0.113343 0.11379 0.114229 0.114678 0.11513 0.115581 0.116029
0.116464 0.116912 0.11736 0.117809 0.118257 0.118696 0.119143 0.11959 0.120036 0.120482
0.120916 0.121359 0.121802 0.122243 0.122683 0.12312 0.123559 0.123996 0.124433 0.12487
0.12521 0.125551 0.125892 0.126233 0.126569 0.127099 0.127629 0.128158 0.128686 0.129215
0.130082 0.130948 0.131816 0.132683 0.133548 0.134411 0.135276 0.136142 0.137007 0.137871
0.13873 0.139594 0.140458 0.141323 0.142186 0.143044 0.143907 0.144771 0.145634 0.146496
0.14736 0.148222 0.149085 0.149947 0.150809 0.151671 0.152533 0.153395 0.154257 0.155114
0.155973 0.156831 0.157692 0.158554 0.159413 0.160267 0.161126 0.161987 0.162848 0.163708
0.164569 0.165428 0.166289 0.167149 0.168007 0.168859 0.169716 0.170576 0.171436 0.172294
0.173152 0.17401 0.174869 0.175729 0.176585 0.177435 0.178291 0.179151 0.18001 0.180868
0.181726 0.182584 0.183443 0.184302 0.185156 0.186006 0.18686 0.187719 0.188577 0.189434
0.190291 0.191148 0.192006 0.192864 0.19372 0.194577 0.195433 0.196291 0.197148 0.198003
0.198859 0.199715 0.200572 0.201428 0.202281 0.203129 0.203981 0.204838 0.205693 0.206548
0.207402 0.208256 0.209112 0.209967 0.210819 0.211666 0.212518 0.213373 0.214227 0.21508
0.215933 0.216787 0.217641 0.218495 0.219346 0.220193 0.221044 0.221898 0.222751 0.223603
0.224454 0.225307 0.226159 0.227013 0.227863 0.228709 0.229559 0.230413 0.231265 0.232116
0.232966 0.233817 0.234669 0.235522 0.236371 0.237217 0.238066 0.238919 0.23977 0.24062
0.241469 0.242319 0.24317 0.244022 0.244872 0.245721 0.24657 0.247422 0.248272 0.249122
0.24997 0.250819 0.251669 0.25252 0.253369 0.254217 0.255066 0.255917 0.256766 0.257615
0.258462 0.259311 0.26016 0.26101 0.261858 0.262703 0.26355 0.2644 0.265249 0.266097
0.266943 0.267791 0.26864 0.269489 0.270337 0.271181 0.272028 0.272877 0.273725 0.274573
0.275418 0.276265 0.277113 0.277962 0.278809 0.279653 0.2805 0.281348 0.282196 0.283042
0.283887 0.284733 0.285581 0.286429 0.287275 0.288119 0.288965 0.289813 0.29066 0.291506
0.29235 0.293196 0.294042 0.29489 0.295736 0.296579 0.297425 0.298272 0.299118 0.299964
0.300807 0.301652 0.302499 0.303346 0.304191 0.305034 0.305879 0.306726 0.307572 0.308416
0.309259 0.310104 0.310949 0.311796 0.312641 0.313483 0.314327 0.315174 0.316019 0.316863
0.317705 0.31855 0.319395 0.320241 0.321085 0.321928 0.322772 0.323618 0.324463 0.325306
0.326148 0.326991 0.327836 0.328682 0.329526 0.330368 0.331212 0.332057 0.332901 0.333745
0.334585 0.335429 0.336273 0.337118 0.337961 0.338803 0.339647 0.340492 0.341335 0.342178
0.343018 0.343861 0.344705 0.345549 0.346392 0.347234 0.348077 0.348921 0.349765 0.350607
0.351447 0.352289 0.353132 0.353976 0.354819 0.35566 0.356503 0.357347 0.35819 0.359032
0.35987 0.360712 0.361555 0.362399 0.363241 0.364082 0.364924 0.365768 0.36661 0.367452
0.36829 0.369131 0.369974 0.370817 0.371659 0.3725 0.373341 0.374184 0.375026 0.375867
0.376705 0.377546 0.378388 0.379231 0.380072 0.380913 0.381754 0.382597 0.383438 0.384279
0.385116 0.385957 0.386798 0.387641 0.388482 0.389322 0.390163 0.391005 0.391846 0.392686
0.393523 0.394363 0.395204 0.396046 0.396887 0.397727 0.398567 0.399409 0.40025 0.401089
0.401926 0.402765 0.403606 0.404448 0.405288 0.406127 0.406967 0.407809 0.408649 0.409488
0.410324 0.411163 0.412004 0.412845 0.413685 0.414524 0.415364 0.416204 0.417044 0.417884
0.418723 0.419562 0.420402 0.421243 0.422083 0.422921 0.423761 0.424601 0.425441 0.426279
0.427114 0.427952 0.428792 0.429632 0.430471 0.431309 0.432148 0.432988 0.433827 0.434665
0.435499 0.436337 0.437177 0.438016 0.438855 0.439693 0.440531 0.441371 0.442209 0.443047
0.443881 0.444718 0.445557 0.446396 0.447235 0.448072 0.44891 0.449749 0.450587 0.451424
0.452257 0.453095 0.453933 0.454772 0.45561 0.456446 0.457284 0.458122 0.45896 0.459797
0.460629 0.461466 0.462304 0.463142 0.46398 0.464816 0.465653 0.466491 0.467329 0.468165
0.468997 0.469833 0.47067 0.471508 0.472345 0.473181 0.474018 0.474855 0.475692 0.476528
0.477359 0.478195 0.479032 0.479869 0.480706 0.481541 0.482377 0.483214 0.484051 0.484886
0.485717 0.486552 0.487388 0.488225 0.489061 0.489896 0.490732 0.491568 0.492404 0.493239
0.494069 0.494904 0.49574 0.496576 0.497411 0.498245 0.499081 0.499917 0.500753 0.501587
0.502416 0.50325 0.504086 0.504922 0.505757 0.50659 0.507425 0.50826 0.509096 0.509929
0.510758 0.511592 0.512427 0.513262 0.514096 0 0.000332686 0.000665382 0.000998088 0.0013308
0.00166353 0.00176261 0.00186169 0.00196077 0.00205986 0.00215889 0.00245606 0.00275325 0.00305044 0.00334764
0.00364486 0.00404115 0.00443746 0.0048338 0.00523015 0.00562653 0.00602289 0.00641928 0.00681569 0.00721212
0.00760858 0.00800488 0.0084012 0.00879755 0.00919393 0.00959033 0.00998464 0.010379 0.0107733 0.0111677
0.0115622 0.0119497 0.0123373 0.012725 0.0131127 0.0135004 0.0138956 0.0142908 0.0146861 0.0150815
0.0154769 0.0158865 0.0162962 0.0167059 0.0171157 0.0175255 0.0179223 0.0183192 0.0187161 0.0191131
0.0195101 0.0199069 0.0203038 0.0207008 0.0210978 0.021495 0.0218918 0.0222887 0.0226857 0.0230828
0.02348 0.0238767 0.0242737 0.0246707 0.0250679 0.0254651 0.0258618 0.0262587 0.0266557 0.0270529
0.0274503 0.0278468 0.0282438 0.0286409 0.0290382 0.0294358 0.0298322 0.0302292 0.0306265 0.0310241
0.0314219 0.0318184 0.0322158 0.0326136 0.0330117 0.0334102 0.0338061 0.0342034 0.0346012 0.0349994
0.0353982 0.0357941 0.0361912 0.0365886 0.036986 0.0373848 0.0375854 0.037786 0.0379864 0.0381867
0.0383875 0.038586 0.0387837 0.0389809 0.0391774 0.0393742 0.0395722 0.0397693 0.039966 0.0401625
0.0403582 0.0405335 0.0407082 0.0408838 0.0410593 0.0412792 0.0413219 0.0413645 0.0414071 0.0414497
0.0414922 0.0417155 0.0419403 0.0421649 0.0423893 0.0426135 0.042825 0.0430364 0.0432473 0.043458
0.0436684 0.0438733 0.0440777 0.0442805 0.0444831 0.0446856 0.0447858 0.0448859 0.0449862 0.0450865
0.0451868 0.0452858 0.0453847 0.0454837 0.0455826 0.0456815 0.0458801 0.0460787 0.0462774 0.0464761
0.0466753 0.0468749 0.0470742 0.0472735 0.0474728 0.0476721 0.0478726 0.0480721 0.0482709 0.0484698
0.0486687 0.0488679 0.0490668 0.049266 0.0494653 0.0496643 0.0498645 0.0500648 0.050265 0.0504653
0.0506656 0.0508664 0.0510673 0.0512685 0.0514697 0.0516708 0.0518711 0.0520715 0.052272 0.0524725
0.0526734 0.0528747 0.0530751 0.0532757 0.0534764 0.0536773 0.0538811 0.0540843 0.0542873 0.0544901
0.0546928 0.054897 0.0551 0.0553031 0.0555061 0.0557091 0.0559142 0.0561183 0.0563224 0.0565265
0.0567306 0.0568306 0.0569308 0.0570312 0.0571316 0.0572321 0.0573248 0.0574175 0.0575102 0.0576027
0.0576951 0.0577948 0.0578946 0.0579943 0.0580941 0.058194 0.0582958 0.0583976 0.0584992 0.0586007
0.0587021 0.0588036 0.058905 0.0590064 0.0591078 0.0592092 0.0593104 0.0594114 0.0595123 0.059613
0.0597135 0.0598127 0.0599119 0.060011 0.0601101 0.0602092 0.0603103 0.0604112 0.060512 0.0606127
0.0607133 0.0608133 0.0609132 0.0610132 0.0611131 0.0612131 0.0613126 0.0614119 0.0615112 0.0616104
0.0617095 0.0618075 0.0619055 0.0620034 0.0621014 0.0621993 0.0622963 0.0623932 0.06249 0.0625868
0.0626835 0.062781 0.0628785 0.062976 0.0630735 0.063171 0.06327 0.0633688 0.0634676 0.0635664
0.0636652 0.063865 0.0640649 0.064265 0.0644653 0.0646659 0.0647642 0.0648628 0.0649615 0.0650603
0.0651592 0.0652588 0.0653585 0.0654581 0.0655576 0.0656571 0.0658559 0.0660548 0.0662537 0.0664526
0.0666514 0.0668506 0.0670492 0.067248 0.0674469 0.0676458 0.0678458 0.0680447 0.0682437 0.0684427
0.0686419 0.0688435 0.069044 0.0692445 0.069445 0.0696455 0.0698472 0.0700487 0.0702502 0.0704519
0.0706536 0.0708548 0.0710563 0.0712581 0.0714599 0.0716613 0.0718621 0.072063 0.072264 0.072465
0.0726661 0.0727851 0.0729041 0.0730233 0.0731426 0.0732627 0.0733451 0.0734275 0.0735101 0.0735928
0.0736756 0.0738784 0.0740815 0.0742851 0.0744888 0.0746921 0.0748943 0.0750978 0.0753014 0.075505
0.0757088 0.0759102 0.0761133 0.0763169 0.0765205 0.0767236 0.0767687 0.0768142 0.0768595 0.0769049
0.0769507 0.0771053 0.0772594 0.0774136 0.0775678 0.077722 0.0779249 0.0781272 0.0783298 0.0785326
0.0787356 0.0789439 0.0791513 0.0793588 0.0795662 0.0797736 0.0799955 0.0802161 0.080437 0.0806583
0.0808798 0.0811021 0.0813236 0.0815455 0.0817678 0.0819905 0.0821967 0.0824026 0.0826092 0.0828164
0.0830243 0.0832292 0.0834344 0.0836399 0.0838458 0.084052 0.0842587 0.0844655 0.0846726 0.08488
0.0850877 0.0851763 0.0852648 0.0853533 0.0854419 0.0855355 0.085654 0.0857725 0.085891 0.0860096
0.0861281 0.0865406 0.0869546 0.0873714 0.0877906 0.0882117 0.0886372 0.0890639 0.0894903 0.0899165
0.0903426 0.0907686 0.0911957 0.0916226 0.0920494 0.0924758 0.0929021 0.0933293 0.0937563 0.094183
0.0946096 0.095036 0.0954634 0.0958908 0.096318 0.0967451 0.0971718 0.0975994 0.0980269 0.0984542
0.0988815 0.0993082 0.099736 0.100164 0.100591 0.101019 0.101445 0.101873 0.102301 0.102728
0.103156 0.103582 0.10401 0.104438 0.104865 0.105292 0.105719 0.106147 0.106574 0.107002
0.107429 0.107876 0.108323 0.10877 0.109218 0.109665 0.110079 0.110494 0.110908 0.111323
0.111737 0.112158 0.112579 0.113 0.113421 0.113842 0.114268 0.114695 0.115121 0.115547
0.115974 0.1164 0.116827 0.117254 0.117681 0.118108 0.118443 0.118779 0.119115 0.119451
0.119783 0.119874 0.119966 0.120057 0.120149 0.120241 0.120667 0.121094 0.121521 0.121948
0.122375 0.122801 0.123228 0.123655 0.124081 0.124508 0.124934 0.125361 0.125788 0.126214
0.126641 0.127067 0.127493 0.12792 0.128346 0.128773 0.129199 0.129625 0.130052 0.130478
0.130904 0.131088 0.131271 0.131455 0.131638 0.131822 0.132064 0.132307 0.13255 0.132793
0.133036 0.133462 0.133888 0.134314 0.13474 0.135166 0.135592 0.136018 0.136444 0.13687
0.137296 0.137723 0.138148 0.138574 0.139 0.139426 0.139852 0.140278 0.140704 0.141129
0.141555 0.141981 0.142407 0.142832 0.143258 0.143684 0.14411 0.144535 0.144961 0.145386
0.145812 0.146238 0.146663 0.147089 0.147514 0.147939 0.148365 0.148791 0.149216 0.149641
0.150067 0.150493 0.150918 0.151343 0.151768 0.152193 0.152619 0.153044 0.15347 0.153895
0.15432 0.154746 0.155171 0.155596 0.156021 0.156446 0.156871 0.157296 0.157721 0.158146
0.158571 0.158997 0.159422 0.159846 0.160271 0.160696 0.161122 0.161547 0.161971 0.162396
0.162821 0.163246 0.163671 0.164096 0.16452 0.164945 0.165371 0.165795 0.16622 0.166644
0.167069 0.167494 0.167919 0.168343 0.168768 0.169192 0.169618 0.170042 0.170467 0.170891
0.171315 0.171741 0.172165 0.172589 0.173014 0.173438 0.173864 0.174288 0.174712 0.175136
0.175561 0.175986 0.17641 0.176834 0.177259 0.177683 0.178108 0.178532 0.178956 0.179381
0.179805 0.18023 0.180654 0.181078 0.181502 0.181926 0.182351 0.182775 0.183199 0.183623
0.184047 0.184473 0.184896 0.18532 0.185744 0.186168 0.186594 0.187017 0.187441 0.187865
0.188289 0.188715 0.189139 0.189563 0.189987 0.190411 0.190837 0.191261 0.191685 0.19211
0.192534 0.192959 0.193383 0.193808 0.194232 0.194657 0.195082 0.195506 0.195931 0.196356
0.19678 0.197205 0.19763 0.198055 0.198479 0.198904 0.19911 0.199316 0.199522 0.199727
0.199932 0.200152 0.200371 0.20059 0.200809 0.201028 0.201453 0.201878 0.202303 0.202727
0.203152 0.203577 0.204001 0.204425 0.20485 0.205274 0.205699 0.206123 0.206547 0.206971
0.207395 0.207819 0.208243 0.208667 0.209091 0.209514 0.209939 0.210362 0.210786 0.211209
0.211633 0.212057 0.212481 0.212904 0.213327 0.213751 0.214175 0.214598 0.215021 0.215444
0.215867 0.216291 0.216714 0.217137 0.21756 0.217982 0.218407 0.218829 0.219252 0.219674
0.220097 0.220521 0.220944 0.221366 0.221788 0.222211 0.222635 0.223057 0.223479 0.223901
0.224323 0.224748 0.22517 0.225591 0.226013 0.226435 0.226859 0.227281 0.227703 0.228124
0.228546 0.22897 0.229392 0.229813 0.230235 0.230656 0.23108 0.231502 0.231923 0.232344
0.232766 0.23319 0.233611 0.234033 0.234454 0.234875 0.235299 0.23572 0.236142 0.236563
0.236984 0.237408 0.237829 0.238251 0.238672 0.239093 0.239516 0.239938 0.240359 0.24078
0.241201 0.241625 0.242046 0.242467 0.242888 0.243309 0.243732 0.244153 0.244574 0.244995
0.245416 0.24584 0.246261 0.246682 0.247103 0.247524 0.247947 0.248368 0.248788 0.249209
0.24963 0.250054 0.250474 0.250895 0.251316 0.251737 0.25216 0.252581 0.253001 0.253422
0.253843 0.254266 0.254687 0.255107 0.255528 0.255949 0.256371 0.256792 0.257213 0.257633
0.258054 0.258477 0.258898 0.259318 0.259739 0.260159 0.260582 0.261002 0.261423 0.261843
0.262264 0.262687 0.263107 0.263528 0.263948 0.264368 0.264791 0.265212 0.265632 0.266052
0.266473 0.266896 0.267316 0.267736 0.268157 0.268577 0.268999 0.26942 0.26984 0.27026
0.270681 0.271104 0.271524 0.271944 0.272364 0.272785 0.273207 0.273627 0.274047 0.274468
0.274888 0.275311 0.275731 0.276151 0.276571 0.276991 0.277414 0.277834 0.278254 0.278674
0.279094 0.279517 0.279937 0.280357 0.280777 0.281197 0.281619 0.28204 0.282459 0.282879
0.2833 0.283722 0.284142 0.284562 0.284982 0.285402 0.285824 0.286244 0.286664 0.287084
0.287504 0.287927 0.288347 0.288767 0.289186 0.289607 0.290028 0.290449 0.290868 0.291288
0.291708 0.29213 0.292551 0.29297 0.29339 0.29381 0.294232 0.294652 0.295072 0.295491
0.295911 0.296333 0.296753 0.297173 0.297593 0.298013 0.298434 0.298854 0.299274 0.299694
0.300114 0.300536 0.300956 0.301375 0.301795 0.302215 0.302636 0.303056 0.303476 0.303895
0.304315 0.304737 0.305157 0.305577 0.305996 0.306416 0.306837 0.307257 0.307677 0.308096
0.308516 0.308938 0.309358 0.309777 0.310197 0.310616 0.311038 0.311458 0.311877 0.312296
0.312716 0.313138 0.313558 0.313977 0.314396 0.314816 0.315237 0.315657 0.316077 0.316496
0.316916 0.317337 0.317757 0.318176 0.318596 0.319015 0.319436 0.319856 0.320276 0.320695
0.321114 0.321536 0.321956 0.322375 0.322794 0.323214 0.323635 0.324054 0.324474 0.324893
0.325312 0.325734 0.326154 0.326573 0.326992 0.327411 0.327832 0.328252 0.328671 0.32909
0.32951 0.32993 0.33035 0.330769 0.331188 0.331608 0.332028 0.332448 0.332867 0.333286
0.333706 0.334127 0.334546 0.334965 0.335384 0.335804 0.336225 0.336644 0.337063 0.337482
0.337902 0.338323 0.338742 0.339161 0.33958 0.34 0.34042 0.34084 0.341259 0.341677
0.342097 0.342518 0.342937 0.343356 0.343775 0.344195 0.344615 0.345034 0.345453 0.345872
0.346292 0.346712 0.347132 0.347551 0.347969 0.348389 0.348809 0.349228 0.349647 0.350066
0.350486 0.350906 0.351325 0.351744 0.352163 0.352582 0.353003 0.353422 0.353841 0.354259
0.354679 0.355099 0.355519 0.355937 0.356356 0.356775 0.357195 0.357615 0.358033 0.358452
0.358871 0.359292 0.359711 0.36013 0.360548 0.360967 0.361387 0.361807 0.362225 0.362644
0.363063 0.363483 0.363903 0.364321 0.36474 0.365159 0.365579 0.365998 0.366417 0.366835
0.367254 0.367674 0.368094 0.368512 0.368931 0.36935 0.36977 0.370189 0.370607 0.371026
0.371445 0.371865 0.372284 0.372702 0.373121 0.37354 0.37396 0.374379 0.374797 0.375216
0.375635 0.376055 0.376474 0.376892 0.377311 0.37773 0.37815 0.378569 0.378987 0.379406
0.379825 0.380245 0.380663 0.381082 0.381501 0.38192 0.382339 0.382758 0.383177 0.383595
0.384014 0.384434 0.384853 0.385271 0.38569 0.386109 0.386528 0.386947 0.387366 0.387784
0.388203 0.388623 0.389041 0.38946 0.389879 0.390297 0.390717 0.391135 0.391554 0.391973
0.392391 0.392811 0.39323 0.393648 0.394067 0.394486 0.394905 0.395323 0.395742 0.396161
0.396579 0.396999 0.397417 0.397836 0.398254 0.398673 0.399092 0.399511 0.399929 0.400348
0.400767 0.401186 0.401604 0.402023 0.402441 0.40286 0.403279 0.403698 0.404116 0.404535
0.404953 0.405372 0.405791 0.406209 0.406628 0.407046 0.407465 0.407884 0.408302 0.408721