# vtk DataFile Version 2.0
sampleSurface
ASCII
DATASET POLYDATA
POINTS 22238 float
-0.0759496 0 -0.016272 -0.0801798 0 -0.0125348 -0.0818345 0 -0.0180453 -0.086997 0
-0.0189531 -0.0886285 0 -0.0137738 -0.0986804 0 -0.0154177 -0.0990586 8.67362e-19 -0.019469
-0.0987498 0 -0.0229307 -0.10251 0 -0.0193177 0.156071 0 0.03163 0.160128
0 0.027637 0.160269 8.67362e-19 0.0319311 0.160168 0 0.0358162 0.164212 0
0.0315376 -0.167313 -1.30104e-18 -0.0372618 -0.171713 4.33681e-19 -0.0328801 -0.17313 -1.30104e-18 -0.03712
-0.17831 -8.67362e-19 -0.0419082 -0.179588 4.33681e-19 -0.0377659 -0.18062 0 -0.0334666 -0.181174
4.33681e-19 -0.0411754 -0.180797 -8.67362e-19 -0.0447601 -0.183563 0 -0.0416301 -0.184665 8.67362e-19
-0.0366363 0.192075 0 0.0404984 0.192558 0 0.0399856 0.192709 -1.19262e-18 0.0405236
0.19988 0 0.0378965 0.199059 0 0.0420645 -0.200181 1.30104e-18 -0.0427786 -0.203488
0 -0.0391938 0.205097 0 0.0384339 0.205183 0 0.0414944 -0.204607 0
-0.0486006 0.205299 0 0.0457362 -0.205716 4.33681e-19 -0.0441846 -0.180639 0 -0.114662
0.211387 0 0.0432967 0.211896 0 0.0408855 -0.211753 2.1684e-19 -0.0429131 -0.184831
0 -0.111914 -0.211543 -6.50521e-19 -0.0451321 -0.183709 0 -0.1177 -0.185634 0
-0.114779 -0.213654 0 -0.0449474 -0.213259 -6.50521e-19 -0.0478512 -0.194589 0 -0.101253
0.215313 -8.67362e-19 0.0429458 -0.189371 0 -0.112926 0.215541 0 0.0465626 -0.199087
0 -0.0957723 -0.201636 0 -0.0908613 0.216504 1.0842e-19 0.046707 -0.193912 0
-0.107042 -0.1888 0 -0.116909 -0.192238 0 -0.112256 -0.19768 0 -0.105624
-0.203189 0 -0.095115 -0.199986 -8.67362e-19 -0.101942 -0.202014 0 -0.101226 -0.205341
0 -0.0947909 0.225228 4.33681e-19 0.0435332 0.224462 0 0.0476253 0.224391 -1.0842e-18
0.0526514 -0.12155 0 -0.195909 -0.11766 4.33681e-19 -0.199464 0.226353 -8.67362e-19 0.0515387
0.226548 2.1684e-19 0.0548237 -0.113274 4.33681e-19 -0.204788 0.229357 0 0.0466058 0.228645
2.1684e-19 0.0522271 -0.124758 0 -0.198677 -0.121633 0 -0.20085 -0.109187 0
-0.208337 -0.119326 -2.1684e-19 -0.20395 -0.117114 0 -0.206574 -0.115222 0 -0.208465
-0.112622 4.33681e-19 -0.211747 -0.213946 -8.67362e-19 -0.124578 -0.217702 4.33681e-19 -0.120614 -0.213146
0 -0.131516 -0.217851 0 -0.124725 -0.215401 4.33681e-19 -0.130942 0.24627 4.33681e-19
0.0540565 -0.214975 0 -0.133555 -0.223636 -4.33681e-19 -0.119206 -0.222925 -4.33681e-19 -0.12208
0.251136 8.67362e-19 0.049653 0.250867 4.33681e-19 0.0543864 -0.226245 0 -0.121382 0.259398
8.67362e-19 0.0511341 0.258549 -4.33681e-19 0.0553658 -0.126923 8.67362e-19 -0.232222 -0.129471 -2.1684e-19
-0.231524 -0.128591 4.33681e-19 -0.234192 0.263448 0 0.0535891 -0.268864 0 -0.0103095
-0.273177 8.67362e-19 -0.0088316 -0.273607 0 -0.0125036 -0.27814 4.33681e-19 -0.006503 -0.279081
4.33681e-19 -0.00444967 -0.27912 0 0.000330643 -0.28357 -4.33681e-19 0.00148877 -0.283819 0
-0.00405313 -0.284517 -4.33681e-19 -0.000603923 -0.289483 -1.0842e-19 0.00573934 -0.2904 0 0.00184859
-0.290401 1.0842e-19 0.00178372 -0.290459 0 0.0018405 -0.29075 -1.0842e-19 0.00635915 -0.290781
0 0.00723505 -0.291706 8.67362e-19 0.00636432 -0.0387295 8.67362e-19 -0.337524 0.0844836 0
-0.329813 0.0845251 7.04731e-19 -0.329913 -0.328774 -3.25261e-19 -0.0893431 -0.329018 1.0842e-19 -0.0891829
-0.0275617 -4.33681e-19 -0.339779 -0.329198 1.6263e-19 -0.0890484 -0.0392238 1.73472e-18 -0.341289 0.217808
4.33681e-19 0.266462 -0.291133 0 -0.183769 0.0900713 -4.33681e-19 0.332411 0.270539 0
0.213121 0.333842 -2.1684e-19 -0.0851677 0.143385 8.67362e-19 -0.313314 0.313684 0 -0.142601
-0.195456 0 0.283837 -0.332302 -8.67362e-19 0.0917895 0.344789 0 0.00273856 -0.212433
0 -0.271686 -0.283179 -4.33681e-19 0.196925 0.242671 5.14996e-19 -0.24513 0.242815 0
-0.244997 -0.316079 -4.33681e-19 0.13819 0.344977 1.19262e-18 0.00250281 0.227026 4.33681e-19 0.259765
0.334346 0 -0.0850488 -0.325471 -4.33681e-19 0.114413 0.242842 0 -0.245111 -0.0433355
4.33681e-19 -0.342471 -0.00352352 4.33681e-19 -0.345185 0.263992 4.33681e-19 0.222544 -0.0271571 0
-0.344299 0.090384 0 0.333405 0.223246 -4.33681e-19 0.26361 0.105943 8.67362e-19 0.32885
0.152041 -4.33681e-19 0.310299 0.135241 4.33681e-19 0.318062 0.089116 1.0842e-19 0.334036 0.267757
8.67362e-19 0.218777 -0.29499 -8.67362e-19 -0.180459 0.214243 0 0.271465 0.160591 4.33681e-19
-0.306313 0.234473 0 -0.254271 0.275272 4.33681e-19 0.209452 -0.1724 0 0.299911
-0.191436 4.33681e-19 0.288157 0.330652 -4.33681e-19 -0.101854 -0.342257 0 -0.0507284 0.306677
0 -0.160282 -0.297861 -4.33681e-19 -0.176206 0.298222 0 -0.175681 -0.0444166 0
-0.343297 -0.176067 -2.1684e-19 -0.298038 0.244149 -1.35525e-20 -0.245448 -0.113509 4.33681e-19 0.327074
-0.278581 4.33681e-19 -0.205602 0.329489 4.33681e-19 0.106507 -0.153981 0 0.310247 0.300228
2.03288e-19 0.172893 0.0910959 0 0.334267 -0.309103 4.33681e-19 0.156535 -0.31939 0
0.134346 0.300185 -3.65918e-19 0.173065 0.300246 -2.71051e-20 0.172969 -0.174371 -4.33681e-19 -0.299435
-0.301099 -2.1684e-19 0.17157 0.255576 -4.33681e-19 -0.234136 0.290428 0 0.189196 0.143397
0 0.315568 -0.0903321 0 0.334719 0.246106 6.77626e-21 -0.244202 0.110996 -4.33681e-19
0.328472 0.246146 0 -0.244219 0.246185 -4.87891e-19 -0.24418 0.0910448 0 0.334599
0.101986 -8.67362e-19 0.33145 0.0914611 -1.0842e-19 0.334545 -0.313877 -8.67362e-19 0.147568 -0.267055
-8.67362e-19 0.221312 0.139682 0 -0.317481 -0.209154 -4.33681e-19 -0.276752 -0.150258 -2.1684e-19
0.312672 -0.0950638 4.33681e-19 0.333664 0.205712 -8.67362e-19 0.279399 -0.288064 0 0.193395
-0.318145 0 -0.138488 -0.277303 0 0.20859 0.192305 -4.33681e-19 -0.288852 -0.145749
4.33681e-19 0.314921 0.246295 6.77626e-21 -0.24446 0.283206 -2.1684e-19 0.200597 -0.20037 4.33681e-19
-0.28339 0.180613 0 0.296383 -0.280271 -4.33681e-19 0.204735 0.147977 -8.67362e-19 0.313984
-0.137429 8.67362e-19 -0.318751 -0.182698 4.33681e-19 0.295151 0.217981 0 0.270165 0.135151
8.67362e-19 -0.319751 0.16118 0 0.307468 -0.311599 0 0.153049 0.222509 -4.33681e-19
-0.26649 -0.29462 4.33681e-19 0.183687 -0.195105 0 0.287216 0.119203 0 0.326136
0.183992 0 -0.294486 0.301479 -2.1684e-19 0.172326 0.308312 0 0.159811 0.274187
1.73472e-18 0.213115 0.29577 0 -0.182004 0.267042 -4.33681e-19 -0.222026 0.28632 -4.33681e-19
0.196562 0.188457 4.33681e-19 -0.291765 -0.0239675 0 -0.346525 0.338671 -8.67362e-19 -0.0771956
0.274547 0 -0.212892 -0.126213 -2.1684e-19 -0.323685 0.213518 4.33681e-19 -0.274067 0.320379
8.67362e-19 -0.134399 0.125333 0 -0.324037 -0.110241 0 0.329488 0.318421 -4.33681e-19
-0.139076 0.20938 0 0.277307 0.28091 -4.33681e-19 0.20458 -0.14591 0 -0.315404
-0.174954 -2.71051e-19 -0.300306 0.109963 -8.67362e-19 0.329711 -0.186635 -4.33681e-19 0.293211 -0.274801
4.33681e-19 0.212827 -0.271126 -4.33681e-19 0.217562 0.325031 -4.33681e-19 -0.12331 -0.203416 4.33681e-19
0.281912 -0.286697 0 0.196645 -0.174985 0 -0.300414 -0.313706 -2.1684e-19 -0.149865
-0.0947423 4.33681e-19 0.334517 0.302174 2.1684e-19 0.172094 0.324287 2.1684e-19 -0.125579 -0.170577
2.1684e-19 0.303047 -0.191527 0 -0.29029 -0.172479 -8.67362e-19 0.302015 -0.220283 0
-0.269147 -0.344524 -4.33681e-19 -0.0478141 0.294546 0 0.185004 -0.175934 0 -0.300056
-0.302414 -8.67362e-19 0.17186 0.231764 4.33681e-19 -0.259383 -0.303015 0 0.170857 0.292631
-8.67362e-19 0.188125 -0.144051 6.50521e-19 -0.31667 -0.0381626 4.33681e-19 0.3458 0.226297 0
-0.26426 -0.212379 0 -0.275578 -0.347928 0 0.000630538 -0.246218 4.33681e-19 -0.245887
-0.204443 -4.33681e-19 -0.281585 -0.317947 -1.30104e-18 -0.141527 -0.283486 -4.33681e-19 0.201938 -0.199883
8.67362e-19 0.284946 -0.342859 -4.33681e-19 -0.059975 0.173028 2.74439e-19 0.302018 0.17303 8.47033e-22
0.302025 0.173021 0 0.30203 -0.129061 2.1684e-19 -0.323274 -0.316396 0 -0.145141
-0.318381 2.1684e-19 -0.140767 -0.179094 4.33681e-19 -0.298515 0.31928 0 0.138736 -0.292729
-4.33681e-19 0.188413 0.273061 -4.33681e-19 0.21597 0.220981 -4.33681e-19 0.26904 -0.175517 0
-0.30068 -0.175259 -2.60886e-19 0.300841 -0.175255 0 0.300852 -0.0996192 4.33681e-19 -0.333738
0.336988 -6.50521e-19 -0.0880153 -0.128341 4.33681e-19 -0.323862 0.325139 0 -0.125128 -0.136761
-3.25261e-19 0.320428 0.203656 0 -0.28269 -0.0881559 4.33681e-19 0.337078 -0.248354 -4.33681e-19
-0.244364 -0.145591 -6.50521e-19 -0.316562 -0.345253 -1.69407e-21 0.0470233 -0.345264 -1.69407e-21 0.047011
-0.345265 -1.2282e-18 0.0470229 -0.345263 0 0.0470433 -0.345268 -1.69407e-21 0.0470176 -0.105126
-4.33681e-19 -0.332247 -0.31971 -2.1684e-19 -0.13866 -0.348462 -4.33681e-19 0.00405013 0.323956 0
-0.128483 -0.277197 0 -0.211233 0.307563 8.67362e-19 0.163934 -0.216494 0 -0.273137
-0.334901 -1.30104e-18 0.0965158 -0.0372479 0 0.346537 -0.295909 1.73472e-18 -0.184175 -0.12064
2.1684e-19 -0.327007 0.260426 -8.67362e-19 -0.231686 -0.12693 2.1684e-19 -0.324642 -0.327896 -1.0842e-19
-0.118312 0.124398 0 -0.325637 0.0434384 -1.0842e-19 0.345912 0.265365 -4.33681e-19 -0.226107
-0.090571 0 0.336674 0.325943 2.1684e-19 -0.123753 -0.328417 0 -0.117048 -0.135918
1.0842e-19 0.321069 0.17685 -2.1684e-19 -0.300474 -0.118471 2.1684e-19 -0.327916 0.0427338 -1.0842e-19
0.346057 0.337015 0 -0.089467 -0.345014 -2.1684e-18 -0.0505396 0.283421 -4.33681e-19 -0.203131
-0.314491 2.1684e-19 -0.150616 0.348701 2.1684e-19 0.000927602 0.341291 0 0.0715246 0.316346
-1.0842e-19 0.14673 0.300162 -4.33681e-19 -0.17751 -0.336389 0 0.0919646 -0.0393961 2.1684e-19
0.346505 -0.317956 -4.33681e-19 0.143273 -0.153913 4.33681e-19 0.312946 0.10297 -4.33681e-19 -0.3332
-0.136551 0 0.320907 -0.0381103 1.0842e-18 0.346669 0.125346 -2.1684e-19 -0.325455 0.302028
0 -0.174402 0.0433648 -1.0842e-18 0.346063 0.282843 -4.33681e-19 0.204086 -0.293764 0
-0.188029 0.312335 0 0.155288 -0.278992 0 -0.209388 0.0778961 0 -0.340018
0.341809 0 0.0696207 0.31688 1.0842e-19 0.145852 -0.186081 -4.33681e-19 0.295085 -0.336204
-4.33681e-19 0.0931152 0.279249 -4.33681e-19 -0.209112 -0.328273 0 -0.118098 -0.302472 4.33681e-19
-0.173858 -0.0377533 1.0842e-19 0.346836 0.209819 0 -0.278741 0.175769 2.1684e-19 -0.301373
0.199389 -8.67362e-19 -0.286308 0.208816 -8.67362e-19 0.279509 -0.147635 -2.1684e-19 0.316123 -0.157422
[...]
POINT_DATA 22238
FIELD attributes 2
p 1 22238 float
15.0807 21.0954 19.3547 27.2564 24.9882 7.41355 7.81307 6.59815 -1.33294 -2.25079 2.42384
2.7915 6.66241 2.40687 7.25532 12.8982 9.96286 -0.305242 -11.4558 -9.96257 -6.13036
-4.31942 -10.8054 -15.9904 -9.15549 -8.3064 -8.08825 -2.33505 -5.82899 12.5073 15.4755
6.57967 6.55815 12.4425 6.2013 14.2388 3.15184 15.0775 13.2702 -12.5406 5.54637
-11.509 9.47923 6.16133 -14.248 -15.8636 17.5056 13.2762 6.82873 15.492 10.8237
3.89005 15.5005 13.3277 4.1745 -6.14648 -8.26526 3.06469 1.06113 -4.76364 -5.26402
13.051 14.4505 6.11335 22.934 22.838 7.08762 7.85682 20.0732 7.28102 8.16284
4.77656 17.9746 8.55052 1.29093 0.107712 11.4618 12.3388 31.0626 32.5704 33.1364
33.8798 30.5984 -12.7364 31.093 9.90769 11.0011 -6.37532 -5.02711 5.06357 8.47603
8.08592 18.8227 14.4234 16.1545 9.83635 23.8229 27.2712 25.1167 25.9865 37.6878
31.4277 38.4733 22.7173 29.6392 12.9061 -1.29676 -1.35001 -1.48723 7.01895 6.50681
3.48859 -2.93969 -18.6738 -18.3744 27.6796 30.2779 17.3293 30.2952 -5.05296 -15.5124
1.14119 -12.7053 -32.3039 -57.7315 -8.79165 -29.3957 -4.46498 6.55601 -25.6592 -4.17188
13.5314 -10.6935 -10.5261 11.9722 -25.0362 -8.09546 -52.772 11.7131 -10.2762 -16.5959
-13.6297 -28.2673 16.3473 -12.7278 -19.1823 -8.57298 -12.2739 -16.5347 -14.486 -23.5919
7.7879 -21.7213 -19.7926 -18.3428 -31.2318 7.52927 5.46103 -29.8377 28.6148 -31.6193
5.99313 -26.6964 -11.7474 7.86924 -8.05662 2.62271 5.22137 -26.537 -1.98855 -20.7497
11.5929 29.9945 16.8058 -21.0382 -20.4347 12.0307 24.9282 -17.3573 -52.7721 -9.13352
3.15981 -9.28179 -9.68451 -9.18518 -9.27075 11.6223 5.7891 11.256 39.3759 10.7217
-15.6616 8.15884 11.7678 -9.23869 -20.2106 22.3343 41.3722 30.8379 -12.0152 16.347
-8.43851 -31.6368 12.7893 -14.8024 38.9118 -16.6413 15.3306 9.82589 -12.1594 -9.67317
-7.75863 37.3044 -24.3265 30.3284 2.08638 -6.262 -16.3936 -19.922 -18.1281 -19.277
-23.9183 -22.0137 -40.352 -18.314 10.3653 -70.7845 -13.9947 3.2654 -18.1873 -27.8836
-23.983 6.03268 -29.4413 -19.2179 -25.3997 5.44284 16.5616 -10.2589 10.138 31.082
24.1248 -27.9049 2.0804 21.6035 16.7755 52.234 -7.423 -17.694 -31.7794 11.2539
6.25824 12.5214 2.64352 38.3492 -46.0524 12.1164 31.9732 -21.8648 31.8925 -34.7255
6.98275 3.26761 -22.0035 3.55084 31.0112 24.7005 13.6605 42.3313 40.5284 3.79762
37.7891 -9.63441 -9.63002 -9.62837 5.52117 58.3867 45.0119 10.8984 -18.2424 27.488
-23.8204 -6.23278 16.4396 9.26381 9.28289 1.47019 -40.632 4.8628 -28.8077 7.97813
-29.1255 3.63081 21.0343 7.78224 61.5933 61.6405 61.6858 61.7177 61.7144 -3.63209
44.7818 37.4951 -29.8017 12.6975 -24.89 6.39633 26.1228 4.00527 19.9375 7.63111
-19.3233 4.65429 46.468 -24.5367 -10.0081 -23.2928 3.70524 -22.6352 49.589 6.14014
-24.9975 8.71089 -10.291 -36.1906 42.9582 -31.8689 63.6051 -29.2085 -31.486 -29.4643
-25.1915 22.0755 0.797388 41.4767 1.30116 -16.6286 7.48932 3.3992 -23.0157 -25.8892
-9.8946 -15.6751 31.343 -12.3888 14.8083 -59.662 -27.3322 -29.1512 9.62894 26.3064
-11.1746 49.3687 10.3366 4.49436 -18.6116 -25.2836 -31.0246 -14.0414 11.8273 2.12715
7.16102 26.9247 45.6727 -15.9697 20.1425 -16.5198 -24.9882 -25.302 24.94 -20.4681
-10.5852 -21.6376 -27.5132 14.973 40.6306 0.881396 48.2954 -36.2154 12.7726 -21.8505
27.3947 22.4021 -10.3814 -28.4194 40.4441 -12.9132 -21.8965 44.6785 -17.6836 53.0753
11.6034 25.7831 -0.196694 -6.90363 45.407 41.1436 64.9061 15.3156 24.9425 -29.9092
39.9153 -14.3385 -45.3594 5.49724 46.2217 -19.3896 -26.4507 -23.5556 39.5622 -21.3165
18.4907 -13.0369 -29.3679 43.6406 5.31769 38.4711 30.8352 32.0922 32.0087 34.607
-23.0874 -10.9843 -10.5496 10.4347 2.25949 7.99949 -13.7133 9.23032 -4.73032 49.8849
49.545 34.7805 46.8816 -21.0437 -18.2846 0.46598 -0.29734 -13.3778 -11.5731 -27.4659
20.1165 -13.068 -17.2638 -46.0778 -21.546 -35.0145 46.8189 -30.0792 -26.5353 -26.6804
2.88846 -30.489 -14.7289 -13.7205 -4.14607 -6.94825 -35.3663 10.9814 45.5967 -4.58896
37.4864 -32.3945 28.4932 -19.6117 46.4274 10.9798 -22.787 18.3819 -12.1514 4.81771
-6.90527 -9.61957 14.1456 -49.719 28.6276 54.25 -10.2646 -22.6777 25.254 -29.5731
-41.493 23.9617 -1.85252 18.6241 -29.0931 -23.5485 -13.3644 46.9576 -22.578 -16.4551
-31.3483 -6.01319 -54.2604 27.4254 -31.9478 4.47228 -24.5533 4.92562 -11.4514 24.1479
51.1253 20.5844 -33.7472 -7.36114 -21.1203 17.7697 18.9288 -0.353325 -59.6213 -22.9278
24.2609 -1.87997 22.908 -21.1102 31.2274 30.1905 -34.0979 29.5004 -31.232 -9.32763
-40.7281 -33.3129 -8.73568 47.3703 -33.6905 -25.7524 10.9402 41.6355 -18.9787 19.1802
-27.3371 -18.7201 18.7215 -35.0497 13.5757 -6.78731 -24.6632 -22.1328 23.0106 36.4538
-39.5595 16.2108 6.16321 -5.61527 -42.7912 41.3358 -31.9911 -40.6034 36.2401 19.9835
-12.0883 33.82 -11.9744 38.7012 -8.50999 -11.8883 -23.0579 -32.6873 -25.9791 -21.0513
-26.811 -31.3993 30.4533 39.6944 -20.9034 -33.1056 13.4068 -34.4319 -28.1278 29.3276
-11.494 -29.5663 -13.1356 13.9931 -25.0827 7.39393 -9.22729 -10.9729 -12.5728 41.3907
-24.2686 -15.1453 29.9991 -37.5581 -2.32686 -18.1438 42.9432 27.8993 35.6305 11.8072
38.073 -21.8389 -12.6413 -23.7155 -22.873 39.1964 -18.765 23.9325 -32.5313 9.81825
-41.0961 -16.57 42.7532 -25.6105 -0.945215 -9.79948 -36.3545 75.4642 -7.72185 -9.68485
-30.5853 -16.5759 -16.3267 54.8704 66.2673 -24.3271 68.2988 -25.658 39.8408 -8.99977
4.43834 -19.0538 37.7048 -7.22294 11.03 40.3952 9.57982 0.056328 -30.0523 -45.1871
77.274 -7.54719 15.0586 -11.1697 41.329 -22.0985 -32.5713 -37.4889 60.4478 77.2476
-42.5039 -12.5844 79.2036 59.7089 -2.732 79.9874 80.2431 -15.217 -15.4214 -9.3872
71.7278 -0.866811 -11.1509 80.1698 -11.1541 -11.5086 -24.8534 -2.03723 -19.9554 -2.07939
4.79771 -15.4941 -21.4032 35.4507 -11.2516 73.8109 -37.3343 -23.0293 -15.1186 -12.0349
68.3411 -2.02194 67.8067 -22.9834 25.6005 45.9023 -54.0624 67.5228 -7.13229 40.3773
-21.5992 -14.3842 -15.2661 -21.3632 -12.5244 -35.3835 71.48 -22.8794 3.68287 -34.0459
45.1979 4.01434 -13.1772 -14.8669 -17.9738 -43.1276 -17.2976 6.254 -15.2203 4.37385
-20.2059 -8.24274 -34.5126 -15.5707 -8.77232 -3.94101 -15.4841 -39.8943 63.8065 -22.5947
63.7551 8.51367 3.15957 -8.3562 22.7322 31.7911 7.29865 72.7293 17.8913 -9.30848
17.6498 -25.5022 21.8298 -19.7251 -0.795344 26.6142 -1.8699 27.0614 -32.9399 43.3417
-15.9833 -16.2839 -22.9453 -0.330169 -20.856 -8.79735 -14.5352 -29.558 10.2903 18.9564
25.3406 -6.96924 -0.326969 15.3809 7.64902 73.2595 7.98558 -24.0627 -25.501 41.6176
-23.3821 -7.65836 4.4873 -26.5165 3.79384 56.2708 -34.9744 3.93702 11.8314 -2.89009
8.58598 7.46036 -10.9905 26.9634 10.9225 -18.4871 66.6192 -4.69058 -13.6929 -23.2483
-17.0634 -5.889 -15.2476 -20.2832 -11.1166 17.3503 45.6763 -11.8091 -17.2746 40.9229
-18.1401 47.2649 -17.151 76.7839 0.521317 45.6529 -20.2265 39.3366 41.2892 13.6183
-20.4989 -11.4868 -12.1058 -4.89517 -9.75714 -22.0963 14.0129 39.8019 39.0794 -20.7452
50.3196 -1.62826 43.5541 1.75704 29.3803 -16.0237 -8.07614 -22.6903 50.5631 44.7845
64.2105 -2.03076 -6.50682 -27.5534 -7.58167 34.7045 -21.5036 -25.511 -17.5076 28.4699
-15.9717 53.844 -8.29875 -16.5896 51.5888 -16.1855 -24.1554 -34.0663 -1.55093 -22.1243
-13.0368 1.28681 48.4074 34.293 -11.6324 -32.9725 -10.5979 59.9585 -7.46522 6.31388
-4.28512 -14.5343 -5.86406 -4.25384 -6.18407 42.745 43.5302 -10.737 11.4813 22.0974
-6.43439 -14.5339 -34.7835 37.0145 -5.90826 31.1194 0.16513 14.3272 7.61707 31.2984
32.8266 30.4132 1.73713 27.748 -8.69533 8.52642 41.7365 -14.9471 -4.35988 -13.1801
-6.31437 5.04851 14.5606 0.894237 39.241 -7.5637 -6.42162 31.1457 -13.8626 5.28055
13.6477 -12.6865 65.5754 -9.50651 -8.40369 2.25427 -19.2584 -18.6657 2.64468 -17.3355
-11.0406 -26.6474 -21.3268 -24.455 13.3237 11.8199 39.1944 -13.62 -11.4722 -21.7779
-18.6835 -19.6587 -20.6631 1.5178 -19.0496 -26.2285 2.81028 -6.25733 8.39421 -18.7715
5.32075 -24.2764 12.9925 -10.594 -21.5294 1.7857 54.9746 -15.5229 31.727 -4.437
5.88967 -5.15422 -18.6675 -9.67208 5.97501 47.1221 5.38556 -9.05842 7.55278 -13.1904
40.9527 7.08746 -15.6513 -5.92759 46.1312 48.7638 6.14881 -1.42822 36.7445 -1.36469
11.0252 5.30993 -8.74594 23.5834 9.41831 -3.79107 13.1421 6.10963 40.0972 -1.7142
6.61062 7.89143 -3.35045 0.848166 6.84075 10.8652 1.64021 -4.40547 13.7443 8.01411
30.7785 36.7663 7.72913 15.5526 15.7632 -2.19988 3.81943 -9.49156 -1.06466 24.2718
-1.69405 36.4201 -15.843 42.2797 -7.12627 13.7428 -0.121014 -13.1946 13.8661 -7.03657
35.0341 13.0445 8.14269 -4.67112 3.9863 8.20673 9.83148 -2.22307 15.5656 7.22295
-6.94884 9.11665 11.6225 7.17509 12.6965 16.2688 -3.69297 38.5854 4.16278 -3.38033
3.50697 24.1458 13.5283 11.7768 1.30772 8.84798 11.7611 5.90733 9.15744 30.9032
2.15345 9.85436 9.83027 13.069 8.50951 9.5497 8.03812 6.27444 11.6029 5.32876
47.7148 5.38301 31.6026 12.555 13.2533 9.33554 -4.37741 -4.33758 40.7221 9.87201
-6.46019 9.95952 11.6723 21.4925 -4.37469 11.7397 27.7265 5.68247 -3.98816 10.2023
47.5254 -6.5382 20.9794 24.4462 33.4239 3.17777 14.7317 18.5732 -9.31488 20.7804
-6.2583 11.7006 11.404 15.3166 5.35223 8.90312 2.28556 9.79283 49.8928 5.34548
-4.06708 8.31823 33.898 34.262 10.6355 39.679 13.6313 2.15374 -6.04431 -4.37552
47.8318 -0.862519 10.5178 3.32008 -2.18313 18.973 -2.08162 19.2639 -2.01658 -6.3717
5.95685 2.6483 42.6736 16.6349 2.52106 2.90251 3.06153 39.7744 39.7731 34.2877
3.44206 0.305 4.44537 14.7933 46.4652 -3.51987 44.5511 -7.78399 32.6269 47.6406
-3.53343 -7.66035 6.85372 -7.26834 -8.27451 -2.33552 -7.18746 -3.85074 18.4792 -2.31959
41.5755 -4.89881 47.6629 14.0517 -5.98201 -3.70404 14.2494 7.64583 0.343104 29.6142
-6.73069 -2.39783 42.1198 -2.29123 4.63104 -5.02309 29.7234 13.6314 19.5889 41.3899
3.18491 5.62771 33.9568 14.0598 6.7608 17.0022 4.24886 -0.213105 1.02287 7.36636
39.7849 11.5859 -4.00854 25.7673 23.1737 -0.347182 24.5015 -4.87332 13.4712 -7.09113
3.27989 19.6572 16.3462 38.2973 -3.80429 16.5321 37.0329 -5.75638 17.1032 -8.29677
17.1248 29.7623 -0.284746 17.8024 -1.49898 0.906083 10.6944 6.80415 21.3879 6.18446
0.345735 -4.62192 4.17632 9.84864 9.88795 28.9259 14.5364 7.95421 9.71645 10.1403
9.64531 5.3643 23.383 5.78992 35.1715 11.7122 0.292132 5.25291 -3.95401 -5.96857
-4.2864 -2.42969 6.76678 -5.53034 5.60292 6.90391 9.03204 5.28237 -2.80257 29.8443
2.91367 4.50599 -1.31087 -2.00863 4.41307 7.95175 35.7636 8.93879 10.4603 4.25554
9.06689 -0.966676 6.45475 -4.49238 25.7361 -2.28497 36.1742 5.60613 2.91737 -2.37903
38.4217 23.613 10.2696 -3.19865 28.0458 10.8904 -0.177864 1.82601 -3.91372 6.21418
-4.62821 13.1586 3.78074 15.5031 21.5424 1.04564 -6.23235 6.96806 7.54347 7.29908
21.291 -0.0435215 -4.48009 -1.77849 28.9706 -1.80389 6.45238 -13.0005 7.18766 -4.13186
8.3865 -4.52024 12.8757 8.41992 31.0919 9.73414 10.5006 9.69637 24.5874 10.052
-4.93271 -1.08402 29.815 -6.66875 -0.202384 24.1443 10.7074 -4.70188 8.21829 24.1159
29.3597 0.67356 6.60883 35.3442 36.7877 34.5197 10.3774 7.80785 2.73134 -0.879494
24.6161 36.8247 10.853 19.5418 37.5387 33.3758 -6.01005 -4.41423 -6.18858 -6.46906
4.19302 34.5027 -3.87168 28.0227 -5.76375 37.9391 -5.84273 -6.18719 27.9189 4.86252
2.30246 -13.1289 21.2025 -4.74567 2.57529 -5.76425 32.0284 -4.22484 2.64304 30.8893
13.8783 11.6616 -3.945 0.774634 -5.96442 3.56764 15.4291 3.74503 22.1025 1.96108
2.13804 0.610061 20.4499 -4.6862 30.0585 2.06708 14.5246 5.36066 -2.4487 7.6915
3.78608 1.34963 8.9873 -3.97646 6.37358 5.52472 18.5917 12.5677 9.27335 -5.36065
3.00433 21.9815 -0.559583 -2.85545 1.68302 26.3615 -5.39267 4.67812 22.4724 15.2064
-1.6572 28.084 -4.0299 1.63253 9.00046 1.53791 5.41685 -3.89223 -1.03421 -5.23466
6.44048 2.69246 9.6352 22.0877 25.8817 1.31665 -4.99719 -11.2165 6.18572 -1.85934
6.30021 15.512 4.54953 6.93302 -2.28595 18.6557 -3.79171 3.33108 -5.07327 1.1289
17.7399 4.16364 -4.82733 3.54701 3.37339 2.80486 -3.76123 3.31755 27.2396 -11.1971
18.9523 25.1436 1.53525 16.8541 2.39314 3.61208 24.1238 3.51692 5.94596 -4.39711
-5.38801 18.7381 5.70739 4.7706 2.14112 5.09369 0.946701 7.37598 6.23028 -3.01092
8.32548 -2.27407 7.95921 2.49838 6.33906 4.66502 4.48819 -0.919656 20.4707 26.0919
0.816838 -4.80563 0.478224 18.832 2.7847 2.78925 24.2351 4.14556 4.14029 8.50745
4.4503 5.96643 10.1496 16.0138 23.1757 -4.28144 -0.00666934 -6.98049 20.0518 23.2427
2.40294 -4.29523 -1.77735 -2.21907 16.1436 -4.72961 -1.57842 8.27003 3.49816 -3.92171
15.2528 5.22424 8.46026 -3.57637 6.01425 -1.35103 3.28115 2.79191 -7.12958 11.2249
12.2138 9.41559 3.59263 4.85045 20.0351 4.22892 11.3297 4.04543 11.902 19.8227
-1.12066 16.2607 7.25714 9.38303 12.7093 -5.28857 14.7281 6.19568 0.5336 -3.31208
3.80748 2.71852 5.53178 23.393 23.0164 0.161504 4.68319 0.734408 2.59955 0.735178
15.7684 17.9065 23.4036 -3.31117 23.018 3.26929 23.0013 12.8891 -4.29063 -4.53967
1.46819 14.2734 -3.82108 7.81681 21.3856 -4.48354 21.7915 -1.69396 -3.10516 -0.2457
5.13644 0.475931 17.6487 12.8197 14.9068 -3.48026 -4.35476 3.8763 1.95115 -5.46411
1.00522 -4.19722 3.90746 0.474678 3.15999 -0.747243 1.05326 19.5376 3.73425 18.0974
20.7074 3.21233 13.3407 0.41146 -1.58339 5.98521 -3.03802 -0.681169 -3.45187 -1.04001
-3.83435 1.11596 2.69769 -4.76267 2.04007 2.40029 -2.78948 13.6877 1.20091 2.31027
2.31581 2.32696 19.2586 15.6355 2.55878 18.1627 -3.32123 1.84155 2.54052 1.24674
3.1489 13.7357 4.31909 15.378 12.6185 3.38346 3.87733 -2.38879 5.04007 2.36693
2.41898 5.57402 -1.89931 14.7371 8.43683 9.58288 -3.51194 13.3062 3.09251 -2.52327
-0.398538 1.99157 14.9176 18.2784 3.43243 16.1058 6.89681 10.2253 18.154 5.71855
9.05348 2.51064 8.10578 -4.92625 2.47518 17.008 -1.36048 -3.38892 -1.82955 4.38986
-0.0436758 2.96626 -3.07676 9.84204 1.06758 11.7824 0.102576 -0.0170699 6.71923 2.0437
4.41762 -3.03285 5.19861 10.5572 -0.00187908 1.14939 0.448063 2.09864 3.55709 -4.51322
11.9797 -2.94222 15.5447 5.62226 10.6216 1.77159 1.64338 16.2367 2.2556 0.552281
-1.33721 0.587163 12.6718 4.3564 0.0851224 -0.780569 13.9525 -0.543566 1.44598 18.0496
17.8622 1.53301 4.64388 -2.65391 10.5438 3.61167 0.416541 -2.02821 17.867 17.4829
11.4599 17.6112 -2.74623 -3.66999 -3.62125 -1.01558 -4.62577 10.9562 -3.22141 16.1886
16.8132 -3.79685 14.0373 0.59033 4.56451 -1.03057 15.4352 -1.11796 -3.08543 2.28232
14.3034 -3.48509 7.21757 -0.213953 15.5889 1.2702 6.2291 8.0728 -1.83354 1.60484
1.5362 0.60518 -2.50198 -2.64832 11.5293 7.06328 10.0792 -3.53274 0.614622 -2.55791
2.21719 -3.3232 4.7521 2.99971 8.55755 3.1713 0.630107 14.5435 2.36236 1.83563
3.93599 3.94274 11.0995 4.53225 5.33472 0.0501902 11.2832 0.523626 -2.26576 9.72708
-2.16782 2.46135 8.37456 4.04821 -1.63846 -2.99277 13.0812 -0.367578 8.68471 3.59751
2.92534 2.11532 -3.55002 4.31702 13.3647 0.651434 13.6965 -2.33928 -0.420093 -1.83828
-0.637372 0.606804 9.54802 4.30166 0.962805 0.729811 9.38613 3.84986 2.25012 -2.78878
-0.727189 0.892482 -0.310854 11.862 1.8797 9.22254 8.75651 2.25546 13.0013 -1.52754
10.7757 8.87021 -1.76004 4.88024 8.96506 4.29009 3.01281 -2.50609 8.47813 13.5656
14.3916 6.20986 -1.1629 13.5664 13.8842 13.5961 12.4083 13.6312 1.22381 3.32488
1.44177 -1.21104 11.2859 3.02196 4.62966 8.64596 -1.54483 1.30769 12.2657 1.30812
-2.38184 -0.262377 0.736843 -0.294954 10.9857 -1.42114 6.77598 12.0085 -1.57563 2.78671
3.0544 -2.17293 1.6599 -1.94267 -0.783267 10.6926 10.3875 5.08592 -1.50857 3.66896
8.21402 1.31045 -0.155226 9.25817 5.91301 -0.537199 0.735372 4.35011 10.276 -1.10745
-0.0820903 1.70412 6.63662 -2.49211 6.53501 4.35639 -2.30868 8.9315 1.90155 2.58137
-2.48926 -1.97342 -1.79545 -1.93958 7.58198 3.8661 6.39356 5.97398 5.73612 3.8172
-0.763649 2.73901 5.92662 6.99031 -2.32346 2.78037 -0.0816603 0.4742 4.67805 0.0661488
4.53206 -1.53464 6.69591 5.1746 7.48728 1.56497 0.978571 -2.0742 -0.1271 3.6325
2.36753 4.6281 4.93383 8.36642 8.50499 6.33396 8.4478 8.44809 5.10562 -1.05121
4.68183 8.06556 -1.36626 1.44546 8.06148 3.08333 5.26037 0.364654 1.20879 4.60807
7.53359 -0.398331 3.05759 -1.82803 0.567379 6.47558 7.08648 -0.32444 7.40481 4.06272
1.82663 -0.569283 6.05494 6.75169 5.54237 2.68173 0.0896997 3.44802 1.53146 5.20526
0.180839 1.78886 2.49858 6.69052 -1.92927 -1.78971 -0.943049 -1.57283 3.96935 0.0165564
-1.95079 2.20601 4.57126 5.89426 -1.55453 3.21262 0.821212 -1.5268 5.29832 4.80747
4.34976 -0.129747 4.54847 5.57536 5.10859 -1.86223 0.940023 -1.2481 3.07105 5.42374
4.54094 5.95545 4.42788 0.527825 1.83943 4.6531 4.22338 -0.0924101 1.08312 -1.70292
0.896634 2.3527 5.04259 -1.25704 6.28691 -0.905487 6.29627 3.87432 -0.653105 6.29903
2.39167 6.07213 -0.221295 2.51022 -0.600307 6.35002 0.249248 1.8501 1.42894 5.7306
-1.51558 3.04003 5.26496 0.0219738 5.55007 4.80217 3.23134 5.60473 -0.257792 -0.560226
1.15994 4.23495 1.25978 4.24593 5.2346 3.38058 0.74926 -0.935047 1.70631 5.40045
-1.31512 4.20766 -1.52557 -1.421 0.0966283 0.584628 2.49641 4.66399 -1.55348 0.541077
4.65622 -0.235259 -1.25173 -1.2174 3.90212 3.63408 -0.345041 3.25119 0.933847 4.00182
3.66116 -1.50924 0.681894 -1.03345 3.5288 4.69579 2.07289 -0.139844 -0.646725 1.81773
3.23513 2.30479 -1.09186 4.07682 1.27307 -1.41107 1.79028 -0.65624 1.91308 -0.64312
-0.786887 1.18547 2.67401 2.90448 -0.142334 4.82305 4.75982 4.69768 0.0519208 4.70513
4.57231 4.42117 0.742542 4.50131 -1.28108 4.48 2.46539 0.732768 -0.533027 3.50808
0.248968 2.89818 -0.862282 -0.136724 4.15135 0.59697 1.43247 1.56533 -1.13497 0.285366
3.79139 -0.433824 1.73621 1.99159 0.849916 1.31156 -1.2361 3.76194 -1.15576 -0.288683
2.09551 -1.26515 -1.03048 -0.990629 2.97956 2.97548 2.94923 2.92158 0.870919 4.12009
-1.24441 2.63978 -0.870436 3.54131 -0.653485 -0.974266 2.35523 2.39613 3.34826 1.04282
1.60272 -1.18213 3.85378 -0.0674669 -0.68878 0.462328 2.22614 0.0175623 0.323875 3.52394
3.82516 3.73947 -0.579087 3.74953 -0.260513 1.20628 -1.09051 0.575706 3.34152 2.50223
3.59259 2.9356 1.95055 -0.498735 1.30239 -0.805619 0.728616 3.39736 1.63139 1.22708
3.36426 0.942601 -0.479172 3.20364 0.776502 0.120696 1.89746 -0.98139 1.63211 -0.312115
0.709842 0.588791 3.08974 -1.02406 -0.961265 2.54099 -1.05056 -0.866279 2.08063 -0.824722
2.3383 2.34469 -0.644624 0.109395 2.30341 -1.04095 2.06748 3.13572 0.90412 -0.129873
-0.860478 0.343374 -0.74592 2.79145 1.33828 1.91555 0.272483 -0.138986 -0.999462 -0.337673
0.921277 1.86609 1.2639 0.538902 -0.608801 0.973249 1.78661 3.13322 1.51828 2.17524
3.11212 3.06638 -0.533662 -0.933414 0.672935 2.48638 -0.733503 2.94924 1.58107 -0.463709
-0.502974 1.02797 1.71551 0.690468 0.01351 2.78258 2.91152 3.0147 1.60506 -0.85153
0.389178 -0.0371305 0.16096 1.33835 -0.318898 2.18712 2.58204 1.84424 -0.223941 0.345738
-0.861938 -0.813107 -0.609706 2.99584 -0.883811 0.764738 -0.74029 0.974899 1.87584 1.2082
-0.700236 1.8632 1.86129 -0.760173 1.90822 -0.878634 1.65977 0.141986 0.723412 -0.382785
1.10357 -0.648147 2.36126 0.497167 1.40448 -0.181604 1.55879 0.702789 -0.498268 -0.849617
1.90312 0.474342 -0.54251 1.1217 2.72926 1.44864 2.62709 2.62707 1.55047 -0.496916
2.56743 -0.664151 2.69678 2.13085 -0.801941 0.60277 0.0271267 0.851545 -0.483147 0.67203
2.47474 -0.42951 1.2861 -0.135784 0.19378 -0.0571257 0.245934 2.52922 2.3476 -0.282779
-0.74141 0.342238 0.956427 0.747804 1.64037 1.09597 -0.315007 1.89984 1.14278 -0.568994
2.19558 0.532728 0.64317 -0.729318 -0.397991 -0.691518 0.45314 1.29397 -0.747168 2.42991
0.0516021 -0.672882 -0.635456 0.689249 1.46335 -0.598984 1.39236 0.911197 1.48636 -0.745233
1.311 2.02705 -0.204149 -0.564108 0.326887 1.24721 1.67632 -0.0698932 0.0720025 -0.725848
1.40221 1.28627 -0.481462 -0.479533 -0.202092 2.58097 1.1664 0.213982 0.523685 -0.599913
1.84869 2.24733 2.25726 0.708829 -0.692401 2.19287 0.752976 0.924782 0.143649 -0.100828
-0.391918 -0.312997 1.04627 2.30999 2.11653 0.56968 0.331044 -0.436249 1.0734 2.56939
1.14156 1.46605 2.01591 -0.648318 0.38789 1.66724 0.901068 -0.52597 -0.299739 -0.398355
1.19056 0.542975 1.89668 0.408921 0.55121 -0.00744617 -0.021121 2.27748 -0.619612 -0.138732
-0.588985 -0.596787 0.102646 0.21972 -0.63556 -0.544568 0.757522 1.13087 -0.208697 -0.51234
1.76429 -0.63695 1.18098 1.03652 1.0236 -0.241675 1.48936 0.222423 -0.48822 1.27267
1.16398 0.745782 0.812741 0.538481 0.591046 0.995157 -0.454459 2.25906 -0.624978 0.886925