# vtk DataFile Version 2.0
sampleSurface
ASCII
DATASET POLYDATA
POINTS 22238 float
-0.0759496 0 -0.016272 -0.0801798 0 -0.0125348 -0.0818345 0 -0.0180453 -0.086997 0
-0.0189531 -0.0886285 0 -0.0137738 -0.0986804 0 -0.0154177 -0.0990586 8.67362e-19 -0.019469
-0.0987498 0 -0.0229307 -0.10251 0 -0.0193177 0.156071 0 0.03163 0.160128
0 0.027637 0.160269 8.67362e-19 0.0319311 0.160168 0 0.0358162 0.164212 0
0.0315376 -0.167313 -1.30104e-18 -0.0372618 -0.171713 4.33681e-19 -0.0328801 -0.17313 -1.30104e-18 -0.03712
-0.17831 -8.67362e-19 -0.0419082 -0.179588 4.33681e-19 -0.0377659 -0.18062 0 -0.0334666 -0.181174
4.33681e-19 -0.0411754 -0.180797 -8.67362e-19 -0.0447601 -0.183563 0 -0.0416301 -0.184665 8.67362e-19
-0.0366363 0.192075 0 0.0404984 0.192558 0 0.0399856 0.192709 -1.19262e-18 0.0405236
0.19988 0 0.0378965 0.199059 0 0.0420645 -0.200181 1.30104e-18 -0.0427786 -0.203488
0 -0.0391938 0.205097 0 0.0384339 0.205183 0 0.0414944 -0.204607 0
-0.0486006 0.205299 0 0.0457362 -0.205716 4.33681e-19 -0.0441846 -0.180639 0 -0.114662
0.211387 0 0.0432967 0.211896 0 0.0408855 -0.211753 2.1684e-19 -0.0429131 -0.184831
0 -0.111914 -0.211543 -6.50521e-19 -0.0451321 -0.183709 0 -0.1177 -0.185634 0
-0.114779 -0.213654 0 -0.0449474 -0.213259 -6.50521e-19 -0.0478512 -0.194589 0 -0.101253
0.215313 -8.67362e-19 0.0429458 -0.189371 0 -0.112926 0.215541 0 0.0465626 -0.199087
0 -0.0957723 -0.201636 0 -0.0908613 0.216504 1.0842e-19 0.046707 -0.193912 0
-0.107042 -0.1888 0 -0.116909 -0.192238 0 -0.112256 -0.19768 0 -0.105624
-0.203189 0 -0.095115 -0.199986 -8.67362e-19 -0.101942 -0.202014 0 -0.101226 -0.205341
0 -0.0947909 0.225228 4.33681e-19 0.0435332 0.224462 0 0.0476253 0.224391 -1.0842e-18
0.0526514 -0.12155 0 -0.195909 -0.11766 4.33681e-19 -0.199464 0.226353 -8.67362e-19 0.0515387
0.226548 2.1684e-19 0.0548237 -0.113274 4.33681e-19 -0.204788 0.229357 0 0.0466058 0.228645
2.1684e-19 0.0522271 -0.124758 0 -0.198677 -0.121633 0 -0.20085 -0.109187 0
-0.208337 -0.119326 -2.1684e-19 -0.20395 -0.117114 0 -0.206574 -0.115222 0 -0.208465
-0.112622 4.33681e-19 -0.211747 -0.213946 -8.67362e-19 -0.124578 -0.217702 4.33681e-19 -0.120614 -0.213146
0 -0.131516 -0.217851 0 -0.124725 -0.215401 4.33681e-19 -0.130942 0.24627 4.33681e-19
0.0540565 -0.214975 0 -0.133555 -0.223636 -4.33681e-19 -0.119206 -0.222925 -4.33681e-19 -0.12208
0.251136 8.67362e-19 0.049653 0.250867 4.33681e-19 0.0543864 -0.226245 0 -0.121382 0.259398
8.67362e-19 0.0511341 0.258549 -4.33681e-19 0.0553658 -0.126923 8.67362e-19 -0.232222 -0.129471 -2.1684e-19
-0.231524 -0.128591 4.33681e-19 -0.234192 0.263448 0 0.0535891 -0.268864 0 -0.0103095
-0.273177 8.67362e-19 -0.0088316 -0.273607 0 -0.0125036 -0.27814 4.33681e-19 -0.006503 -0.279081
4.33681e-19 -0.00444967 -0.27912 0 0.000330643 -0.28357 -4.33681e-19 0.00148877 -0.283819 0
-0.00405313 -0.284517 -4.33681e-19 -0.000603923 -0.289483 -1.0842e-19 0.00573934 -0.2904 0 0.00184859
-0.290401 1.0842e-19 0.00178372 -0.290459 0 0.0018405 -0.29075 -1.0842e-19 0.00635915 -0.290781
0 0.00723505 -0.291706 8.67362e-19 0.00636432 -0.0387295 8.67362e-19 -0.337524 0.0844836 0
-0.329813 0.0845251 7.04731e-19 -0.329913 -0.328774 -3.25261e-19 -0.0893431 -0.329018 1.0842e-19 -0.0891829
-0.0275617 -4.33681e-19 -0.339779 -0.329198 1.6263e-19 -0.0890484 -0.0392238 1.73472e-18 -0.341289 0.217808
4.33681e-19 0.266462 -0.291133 0 -0.183769 0.0900713 -4.33681e-19 0.332411 0.270539 0
0.213121 0.333842 -2.1684e-19 -0.0851677 0.143385 8.67362e-19 -0.313314 0.313684 0 -0.142601
-0.195456 0 0.283837 -0.332302 -8.67362e-19 0.0917895 0.344789 0 0.00273856 -0.212433
0 -0.271686 -0.283179 -4.33681e-19 0.196925 0.242671 5.14996e-19 -0.24513 0.242815 0
-0.244997 -0.316079 -4.33681e-19 0.13819 0.344977 1.19262e-18 0.00250281 0.227026 4.33681e-19 0.259765
0.334346 0 -0.0850488 -0.325471 -4.33681e-19 0.114413 0.242842 0 -0.245111 -0.0433355
4.33681e-19 -0.342471 -0.00352352 4.33681e-19 -0.345185 0.263992 4.33681e-19 0.222544 -0.0271571 0
-0.344299 0.090384 0 0.333405 0.223246 -4.33681e-19 0.26361 0.105943 8.67362e-19 0.32885
0.152041 -4.33681e-19 0.310299 0.135241 4.33681e-19 0.318062 0.089116 1.0842e-19 0.334036 0.267757
8.67362e-19 0.218777 -0.29499 -8.67362e-19 -0.180459 0.214243 0 0.271465 0.160591 4.33681e-19
-0.306313 0.234473 0 -0.254271 0.275272 4.33681e-19 0.209452 -0.1724 0 0.299911
-0.191436 4.33681e-19 0.288157 0.330652 -4.33681e-19 -0.101854 -0.342257 0 -0.0507284 0.306677
0 -0.160282 -0.297861 -4.33681e-19 -0.176206 0.298222 0 -0.175681 -0.0444166 0
-0.343297 -0.176067 -2.1684e-19 -0.298038 0.244149 -1.35525e-20 -0.245448 -0.113509 4.33681e-19 0.327074
-0.278581 4.33681e-19 -0.205602 0.329489 4.33681e-19 0.106507 -0.153981 0 0.310247 0.300228
2.03288e-19 0.172893 0.0910959 0 0.334267 -0.309103 4.33681e-19 0.156535 -0.31939 0
0.134346 0.300185 -3.65918e-19 0.173065 0.300246 -2.71051e-20 0.172969 -0.174371 -4.33681e-19 -0.299435
-0.301099 -2.1684e-19 0.17157 0.255576 -4.33681e-19 -0.234136 0.290428 0 0.189196 0.143397
0 0.315568 -0.0903321 0 0.334719 0.246106 6.77626e-21 -0.244202 0.110996 -4.33681e-19
0.328472 0.246146 0 -0.244219 0.246185 -4.87891e-19 -0.24418 0.0910448 0 0.334599
0.101986 -8.67362e-19 0.33145 0.0914611 -1.0842e-19 0.334545 -0.313877 -8.67362e-19 0.147568 -0.267055
-8.67362e-19 0.221312 0.139682 0 -0.317481 -0.209154 -4.33681e-19 -0.276752 -0.150258 -2.1684e-19
0.312672 -0.0950638 4.33681e-19 0.333664 0.205712 -8.67362e-19 0.279399 -0.288064 0 0.193395
-0.318145 0 -0.138488 -0.277303 0 0.20859 0.192305 -4.33681e-19 -0.288852 -0.145749
4.33681e-19 0.314921 0.246295 6.77626e-21 -0.24446 0.283206 -2.1684e-19 0.200597 -0.20037 4.33681e-19
-0.28339 0.180613 0 0.296383 -0.280271 -4.33681e-19 0.204735 0.147977 -8.67362e-19 0.313984
-0.137429 8.67362e-19 -0.318751 -0.182698 4.33681e-19 0.295151 0.217981 0 0.270165 0.135151
8.67362e-19 -0.319751 0.16118 0 0.307468 -0.311599 0 0.153049 0.222509 -4.33681e-19
-0.26649 -0.29462 4.33681e-19 0.183687 -0.195105 0 0.287216 0.119203 0 0.326136
0.183992 0 -0.294486 0.301479 -2.1684e-19 0.172326 0.308312 0 0.159811 0.274187
1.73472e-18 0.213115 0.29577 0 -0.182004 0.267042 -4.33681e-19 -0.222026 0.28632 -4.33681e-19
0.196562 0.188457 4.33681e-19 -0.291765 -0.0239675 0 -0.346525 0.338671 -8.67362e-19 -0.0771956
0.274547 0 -0.212892 -0.126213 -2.1684e-19 -0.323685 0.213518 4.33681e-19 -0.274067 0.320379
8.67362e-19 -0.134399 0.125333 0 -0.324037 -0.110241 0 0.329488 0.318421 -4.33681e-19
-0.139076 0.20938 0 0.277307 0.28091 -4.33681e-19 0.20458 -0.14591 0 -0.315404
-0.174954 -2.71051e-19 -0.300306 0.109963 -8.67362e-19 0.329711 -0.186635 -4.33681e-19 0.293211 -0.274801
4.33681e-19 0.212827 -0.271126 -4.33681e-19 0.217562 0.325031 -4.33681e-19 -0.12331 -0.203416 4.33681e-19
0.281912 -0.286697 0 0.196645 -0.174985 0 -0.300414 -0.313706 -2.1684e-19 -0.149865
-0.0947423 4.33681e-19 0.334517 0.302174 2.1684e-19 0.172094 0.324287 2.1684e-19 -0.125579 -0.170577
2.1684e-19 0.303047 -0.191527 0 -0.29029 -0.172479 -8.67362e-19 0.302015 -0.220283 0
-0.269147 -0.344524 -4.33681e-19 -0.0478141 0.294546 0 0.185004 -0.175934 0 -0.300056
-0.302414 -8.67362e-19 0.17186 0.231764 4.33681e-19 -0.259383 -0.303015 0 0.170857 0.292631
-8.67362e-19 0.188125 -0.144051 6.50521e-19 -0.31667 -0.0381626 4.33681e-19 0.3458 0.226297 0
-0.26426 -0.212379 0 -0.275578 -0.347928 0 0.000630538 -0.246218 4.33681e-19 -0.245887
-0.204443 -4.33681e-19 -0.281585 -0.317947 -1.30104e-18 -0.141527 -0.283486 -4.33681e-19 0.201938 -0.199883
8.67362e-19 0.284946 -0.342859 -4.33681e-19 -0.059975 0.173028 2.74439e-19 0.302018 0.17303 8.47033e-22
0.302025 0.173021 0 0.30203 -0.129061 2.1684e-19 -0.323274 -0.316396 0 -0.145141
-0.318381 2.1684e-19 -0.140767 -0.179094 4.33681e-19 -0.298515 0.31928 0 0.138736 -0.292729
-4.33681e-19 0.188413 0.273061 -4.33681e-19 0.21597 0.220981 -4.33681e-19 0.26904 -0.175517 0
-0.30068 -0.175259 -2.60886e-19 0.300841 -0.175255 0 0.300852 -0.0996192 4.33681e-19 -0.333738
0.336988 -6.50521e-19 -0.0880153 -0.128341 4.33681e-19 -0.323862 0.325139 0 -0.125128 -0.136761
-3.25261e-19 0.320428 0.203656 0 -0.28269 -0.0881559 4.33681e-19 0.337078 -0.248354 -4.33681e-19
-0.244364 -0.145591 -6.50521e-19 -0.316562 -0.345253 -1.69407e-21 0.0470233 -0.345264 -1.69407e-21 0.047011
-0.345265 -1.2282e-18 0.0470229 -0.345263 0 0.0470433 -0.345268 -1.69407e-21 0.0470176 -0.105126
-4.33681e-19 -0.332247 -0.31971 -2.1684e-19 -0.13866 -0.348462 -4.33681e-19 0.00405013 0.323956 0
-0.128483 -0.277197 0 -0.211233 0.307563 8.67362e-19 0.163934 -0.216494 0 -0.273137
-0.334901 -1.30104e-18 0.0965158 -0.0372479 0 0.346537 -0.295909 1.73472e-18 -0.184175 -0.12064
2.1684e-19 -0.327007 0.260426 -8.67362e-19 -0.231686 -0.12693 2.1684e-19 -0.324642 -0.327896 -1.0842e-19
-0.118312 0.124398 0 -0.325637 0.0434384 -1.0842e-19 0.345912 0.265365 -4.33681e-19 -0.226107
-0.090571 0 0.336674 0.325943 2.1684e-19 -0.123753 -0.328417 0 -0.117048 -0.135918
1.0842e-19 0.321069 0.17685 -2.1684e-19 -0.300474 -0.118471 2.1684e-19 -0.327916 0.0427338 -1.0842e-19
0.346057 0.337015 0 -0.089467 -0.345014 -2.1684e-18 -0.0505396 0.283421 -4.33681e-19 -0.203131
-0.314491 2.1684e-19 -0.150616 0.348701 2.1684e-19 0.000927602 0.341291 0 0.0715246 0.316346
-1.0842e-19 0.14673 0.300162 -4.33681e-19 -0.17751 -0.336389 0 0.0919646 -0.0393961 2.1684e-19
0.346505 -0.317956 -4.33681e-19 0.143273 -0.153913 4.33681e-19 0.312946 0.10297 -4.33681e-19 -0.3332
-0.136551 0 0.320907 -0.0381103 1.0842e-18 0.346669 0.125346 -2.1684e-19 -0.325455 0.302028
0 -0.174402 0.0433648 -1.0842e-18 0.346063 0.282843 -4.33681e-19 0.204086 -0.293764 0
-0.188029 0.312335 0 0.155288 -0.278992 0 -0.209388 0.0778961 0 -0.340018
0.341809 0 0.0696207 0.31688 1.0842e-19 0.145852 -0.186081 -4.33681e-19 0.295085 -0.336204
-4.33681e-19 0.0931152 0.279249 -4.33681e-19 -0.209112 -0.328273 0 -0.118098 -0.302472 4.33681e-19
-0.173858 -0.0377533 1.0842e-19 0.346836 0.209819 0 -0.278741 0.175769 2.1684e-19 -0.301373
0.199389 -8.67362e-19 -0.286308 0.208816 -8.67362e-19 0.279509 -0.147635 -2.1684e-19 0.316123 -0.157422
[...]
POINT_DATA 22238
FIELD attributes 2
p 1 22238 float
15.071 21.087 19.3452 27.2493 24.9813 7.40965 7.80878 6.59325 -1.33557 -2.27409 2.30659
2.67035 6.5653 2.28407 7.25316 12.8988 9.96551 -0.29856 -11.4492 -9.956 -6.12259
-4.31201 -10.7977 -15.9824 -9.18907 -8.34537 -8.12578 -2.42418 -5.8874 12.504 15.4686
6.48454 6.47419 12.435 6.13807 14.2297 3.13814 14.9992 13.1957 -12.5586 5.53193
-11.5264 9.46556 6.14611 -14.2651 -15.8817 17.4799 13.2213 6.80263 15.4439 10.7993
3.86294 15.4533 13.3003 4.14862 -6.17757 -8.29746 3.03595 1.03081 -4.78824 -5.29536
13.0312 14.4153 6.07994 22.9338 22.8365 7.05559 7.83054 20.0682 7.26302 8.14045
4.77638 17.9735 8.54024 1.28858 0.103626 11.4552 12.332 31.0683 32.5899 33.1436
33.8874 30.6063 -12.7319 31.1022 9.91301 11.0025 -6.3878 -5.03741 5.05894 8.44145
8.05214 18.814 14.4134 16.1446 9.80343 23.8174 27.2626 25.105 25.9754 37.6786
31.4214 38.4728 22.7146 29.6366 12.9079 -1.29475 -1.34799 -1.48522 7.02097 6.50896
3.4901 -2.94653 -18.6773 -18.3779 27.6766 30.2751 17.3243 30.2923 -5.05883 -15.5198
1.14097 -12.7041 -32.3077 -57.7375 -8.79391 -29.4108 -4.46124 6.5564 -26.9547 -4.17468
13.5368 -10.6944 -10.5265 11.9722 -26.4278 -8.10034 -52.7778 11.7166 -10.2769 -16.6045
-13.6343 -28.2794 16.3441 -12.7266 -19.187 -8.58054 -12.2748 -16.5305 -14.4846 -23.6033
7.78613 -21.7295 -19.8033 -18.345 -31.2241 7.53134 5.46334 -29.8799 28.6139 -31.6326
5.98801 -26.706 -11.7507 7.8647 -8.05681 2.6244 5.21854 -26.5691 -1.98468 -20.7684
11.5907 29.9988 16.8057 -21.0564 -20.4532 12.0268 24.9227 -17.3603 -52.7549 -9.14201
3.16199 -9.28101 -9.69151 -9.1845 -9.27006 11.6202 5.78635 11.2538 39.3793 10.7225
-15.6613 8.15697 11.7721 -9.23723 -20.2132 22.3389 41.3711 30.8382 -12.0106 16.3513
-8.43776 -31.6274 12.7895 -14.8063 38.9127 -16.6424 15.3246 9.8305 -12.1626 -9.67421
-7.75545 37.3085 -24.3305 30.3336 2.08803 -6.26974 -16.3959 -19.9446 -18.1484 -19.2811
-23.9313 -22.0177 -40.3375 -18.315 10.3596 -70.7748 -13.9931 3.25877 -18.1913 -27.8931
-23.9866 6.03423 -29.4809 -19.2228 -25.3956 5.44068 16.5551 -10.2678 10.1407 31.0829
24.1259 -27.9189 2.08212 21.6072 16.769 52.2303 -7.42259 -17.7171 -31.8039 11.2561
6.25278 12.5242 2.6376 38.3452 -46.0459 12.1137 31.9662 -21.8763 31.8888 -34.7204
6.98024 3.26903 -22.0142 3.54659 31.0105 24.6991 13.659 42.3302 40.5314 3.80021
37.7887 -9.63698 -9.6326 -9.63094 5.51477 58.3851 45.0103 10.8947 -18.2403 27.4917
-23.8234 -6.23679 16.434 9.26684 9.28593 1.4679 -40.6489 4.85805 -28.8169 7.9803
-29.1168 3.63444 21.0333 7.77826 61.5928 61.64 61.6853 61.7171 61.7139 -3.6341
44.7808 37.4937 -29.8121 12.6951 -24.9091 6.39226 26.1221 4.00677 19.9352 7.62711
-19.3238 4.64865 46.4673 -24.5402 -10.0063 -23.2953 3.70681 -22.632 49.5885 6.14223
-25.0007 8.70607 -10.2899 -36.2112 42.9573 -31.8788 63.6034 -31.1369 -31.0871 -29.4745
-25.2036 22.076 0.799227 41.4784 1.30362 -16.6355 7.491 3.40047 -23.019 -25.9006
-9.89273 -15.6763 31.3411 -12.4057 14.8039 -59.6626 -26.9842 -29.1571 9.63165 26.3076
-11.1741 49.3682 10.3332 4.49559 -18.6114 -25.2867 -31.0332 -14.0418 11.8299 2.12993
7.16358 26.9228 45.6715 -15.9735 20.1395 -16.5202 -24.9852 -25.3569 24.9376 -20.4761
-10.5901 -21.6341 -27.5231 14.9764 40.6289 0.874801 48.2973 -36.2325 12.77 -21.8537
27.3975 22.4008 -10.3865 -28.4519 40.4475 -12.9088 -21.9031 44.6651 -17.7022 53.0745
11.5978 25.7839 -0.194844 -6.91626 45.4102 41.145 64.9045 15.3114 24.9435 -31.9369
39.9167 -14.3379 -45.386 5.49965 46.2084 -19.3925 -26.1747 -23.5568 39.5648 -21.3269
18.488 -13.0397 -31.3713 43.6432 5.31488 38.471 30.8355 32.0901 32.0073 34.6051
-23.0944 -10.9842 -10.5464 10.4368 2.26454 7.99326 -13.7134 9.2249 -4.72454 49.8872
49.5441 34.7825 46.8806 -21.0476 -18.2827 0.461602 -0.301028 -13.3766 -11.5741 -27.4653
20.1188 -13.0711 -17.2668 -45.8244 -21.5472 -35.0349 46.8062 -30.0941 -26.5426 -26.6946
2.88773 -30.5038 -14.7317 -13.7204 -4.14828 -6.94758 -35.377 10.9775 45.5994 -4.59095
37.4852 -32.4265 28.4899 -19.613 46.4132 10.9823 -22.854 18.3715 -12.1524 4.82029
-6.90572 -9.61969 14.1419 -49.4952 28.6243 54.2488 -10.2708 -22.6739 25.2851 -29.5355
-41.3406 23.9588 -1.85337 18.6137 -29.1075 -23.5607 -13.3711 46.9568 -22.5741 -16.4602
-31.3553 -6.01619 -54.264 27.4234 -31.9577 4.46716 -24.5663 4.92758 -11.4756 24.1783
51.1245 20.5821 -35.9582 -7.37108 -21.1232 17.7719 18.9255 -0.349771 -59.3519 -22.9224
24.2573 -1.87873 22.905 -21.1135 31.2267 30.1912 -35.5712 29.5016 -31.2397 -9.32486
-40.7407 -33.3205 -8.74347 47.3696 -33.7037 -25.7533 10.9434 41.6339 -18.9685 19.1825
-27.3407 -18.7258 18.7239 -30.6846 13.5779 -6.78573 -24.0269 -22.1299 23.0066 36.4523
-39.5639 16.2081 6.16085 -5.6237 -42.8152 41.3342 -31.9915 -40.6139 36.2418 19.9832
-12.0855 33.822 -11.9742 38.6994 -8.516 -11.8981 -23.0653 -32.9383 -23.766 -21.0567
-26.7623 -31.4114 30.4502 39.6928 -20.9326 -33.1175 13.4046 -34.4474 -28.154 29.3245
-11.4932 -29.5735 -13.1457 13.9896 -25.0938 7.38989 -9.22446 -10.9971 -12.5721 41.389
-24.2733 -15.1448 29.996 -38.8806 -2.33172 -18.1442 42.9429 27.8962 35.6362 11.8093
38.0742 -21.8435 -12.6448 -23.7249 -22.8729 39.1974 -18.7666 23.9357 -29.4306 9.82075
-41.1135 -16.5803 42.7545 -25.6279 -0.947418 -9.80463 -36.9824 75.465 -7.71711 -9.68949
-28.931 -16.5808 -16.3295 54.8702 66.2673 -24.3314 68.2974 -25.6568 39.8408 -8.99705
4.4407 -19.052 37.7015 -7.22745 11.0319 40.3964 9.57588 0.0534354 -29.2872 -45.0338
77.2745 -7.54448 15.0552 -11.1683 41.3273 -22.1011 -32.5814 -37.5032 60.4469 77.2484
-43.58 -12.5802 79.2034 59.7079 -2.73475 79.9872 80.2429 -15.2167 -15.4193 -9.39182
71.7263 -0.864304 -11.1494 80.1695 -11.1629 -11.5108 -24.8485 -2.04123 -19.9687 -2.09092
4.79983 -15.4926 -21.4021 35.4509 -11.2508 73.8096 -37.3489 -23.0434 -15.1165 -12.0346
68.3413 -2.03372 67.8061 -22.992 25.6032 45.8887 -54.0559 67.5221 -7.1294 40.3782
-21.5953 -14.3928 -15.265 -21.3622 -12.5201 -35.4109 71.4785 -22.8828 3.67714 -34.0763
45.1997 4.01655 -13.1722 -14.8719 -17.9833 -43.1255 -17.288 6.24851 -15.2182 4.37691
-20.2076 -8.25697 -34.5453 -15.5768 -8.77151 -3.9481 -15.4888 -39.7239 63.8058 -22.6001
63.7541 8.50904 3.15603 -8.36616 22.732 31.7885 7.29351 72.7286 17.8876 -9.31262
17.6504 -25.5032 21.8282 -19.7343 -0.794311 26.6139 -1.87399 27.0599 -32.9531 43.3439
-15.9764 -16.2898 -21.2888 -0.328921 -20.8646 -8.79806 -14.5369 -26.4741 10.2906 18.9506
25.3357 -6.96797 -0.329415 15.3773 7.65049 73.259 7.982 -24.058 -25.503 41.6164
-23.4036 -7.65857 4.48155 -26.5263 3.79706 56.2695 -35.0724 3.93507 11.826 -2.8944
8.58628 7.45446 -10.986 26.9639 10.9254 -18.491 66.6181 -4.69029 -13.6947 -23.2488
-17.0729 -5.89116 -15.2515 -20.2565 -11.1222 17.3542 45.6758 -11.8118 -17.2863 40.9238
-18.1417 47.2643 -17.1547 76.7837 0.517507 45.6517 -20.2353 39.3365 41.2901 13.6134
-20.5036 -11.4896 -12.1061 -4.87227 -9.75263 -22.0974 14.0092 39.8003 39.0801 -20.7495
50.3194 -1.63506 43.5565 1.74953 29.3777 -16.2601 -8.07635 -23.7649 50.5614 44.7835
64.2095 -2.03582 -6.5058 -27.862 -7.58035 34.7031 -22.1061 -23.6389 -17.5163 28.4685
-15.6007 53.8439 -8.29902 -16.5866 51.588 -16.1844 -24.7948 -33.9428 -1.55083 -21.4149
-13.0372 1.28854 48.4053 34.2944 -11.6297 -33.6562 -10.6012 59.9573 -7.46306 6.31541
-4.28585 -14.5313 -5.86518 -4.25387 -6.18107 42.7446 43.5281 -10.7357 11.4829 22.0905
-6.43834 -14.5371 -34.6808 37.0138 -5.91036 31.1174 0.162001 14.3254 7.61843 31.294
32.8256 30.4087 1.74008 27.7461 -8.69823 8.52562 41.7352 -14.9461 -4.37121 -13.1861
-6.3152 5.03904 14.5638 0.89327 39.2414 -7.56534 -6.42317 31.1449 -13.8606 5.27956
13.6432 -12.6917 65.5744 -9.51072 -8.40477 2.25628 -19.2545 -18.6631 2.64077 -17.3344
-11.0526 -26.661 -21.3396 -24.4628 13.3185 11.8155 39.1942 -14.0817 -11.4847 -21.773
-18.684 -19.6576 -20.6752 1.51175 -19.0463 -26.2418 2.80674 -6.26333 8.3939 -18.7682
5.30561 -24.2842 12.9875 -10.5998 -21.5247 1.77981 54.9745 -15.5318 31.7276 -4.43104
5.88472 -5.16007 -18.6649 -9.67571 6.00525 47.1212 5.28755 -9.0641 7.55296 -13.1985
40.9529 7.08771 -15.6611 -5.9248 46.1304 48.7643 6.15083 -1.43154 36.7427 -1.36441
11.0295 5.28906 -8.74961 23.5838 9.41302 -3.79023 13.1411 6.11022 40.0972 -1.71132
6.60415 7.89244 -3.3484 0.843411 6.84087 10.8658 2.37557 -4.40924 13.7841 8.01376
30.7786 36.7647 7.73165 15.5497 15.7629 -2.1999 3.82141 -9.48789 -1.06348 24.2679
-1.6937 36.4211 -15.8469 42.2785 -7.12958 13.7474 -0.124154 -13.2029 13.8753 -7.03987
35.033 12.9146 8.14391 -4.67139 3.98432 8.20769 9.84342 -2.22284 15.5655 7.2229
-6.95209 9.11587 11.618 7.17758 12.6897 16.2661 -3.70247 38.5822 5.37043 -3.38373
3.50241 24.1419 13.5247 11.7723 1.30827 8.84768 11.7614 5.90105 9.15949 30.9032
2.15217 9.84949 9.83109 13.0621 8.5105 9.54892 8.04369 6.26932 11.6055 6.70684
47.7123 5.38234 31.6006 12.556 13.2407 9.33664 -4.38714 -4.3473 40.7213 9.87127
-6.45685 9.95473 11.668 21.4935 -4.36907 11.742 27.7243 5.68189 -3.98564 10.2132
47.5261 -6.53744 20.9767 24.4471 33.4237 3.17525 14.7328 18.5737 -9.31116 20.7771
-6.25573 11.7044 11.4062 15.3102 5.35172 10.3321 2.67989 9.78815 49.893 5.34572
-4.07651 8.31968 33.8987 34.2602 11.8348 39.678 13.6276 2.1549 -6.04225 -4.37281
47.8318 -0.870083 11.3039 3.39073 -2.18517 18.9784 -2.08626 19.277 -2.01432 -6.37081
6.36028 2.49912 42.6733 16.6658 2.71775 2.42755 3.05702 39.774 39.7728 34.2866
3.43672 0.334548 3.6286 14.7879 46.4646 -3.52214 44.5507 -7.78275 32.6279 47.64
-3.53261 -7.65762 5.23226 -7.26608 -8.27281 -2.33354 -7.18579 -3.85206 18.4807 -2.31761
41.5745 -4.89312 47.6622 14.057 -5.9804 -3.70087 14.1504 7.64716 0.343258 29.6124
-6.7282 -2.39585 42.1162 -2.28928 4.63337 -5.02387 29.7229 13.6326 19.6114 41.3891
3.18663 5.62976 33.954 14.055 5.65554 16.9216 4.23405 -0.215253 1.01999 7.36839
39.7847 11.5935 -4.00701 25.768 23.173 -0.3432 24.5022 -4.87803 13.4665 -7.08904
3.27484 19.6543 16.2678 38.296 -3.80267 16.5314 37.033 -5.75489 17.104 -8.2976
17.1478 29.7604 -0.281495 17.8265 -1.50117 0.899429 10.6911 6.80577 21.3881 6.18331
0.347212 -4.62897 4.17597 9.84373 9.88318 28.9238 14.4483 7.66973 9.71163 10.1429
9.64045 5.3633 23.3795 5.78878 35.1716 11.7206 0.293424 5.25411 -3.95248 -5.97322
-4.28521 -2.43742 6.76598 -5.5291 5.60178 6.90337 9.02788 5.27794 -2.80501 29.8443
2.90915 4.50535 -1.31167 -2.01039 4.41256 7.95246 35.7622 8.93469 10.4504 4.25715
9.06288 -0.963139 6.45644 -4.49201 25.7357 -2.28686 36.1709 5.6081 2.91275 -2.3867
38.4218 23.6108 10.2626 -3.2012 28.0433 10.8843 -0.183904 1.8212 -3.9114 6.21559
-4.63006 13.0847 3.78025 15.5137 21.5417 1.0461 -6.23106 6.96915 7.5398 7.29983
21.2878 -0.044328 -4.47793 -1.77996 28.9708 -1.80534 7.44534 -13.0075 8.24971 -4.12958
9.28847 -4.51815 12.8795 9.08015 31.0907 9.72773 10.4712 10.1858 24.5883 9.89774
-4.93444 -1.08135 29.8137 -6.66751 -0.208443 24.1453 11.1263 -4.70046 8.22046 24.1169
29.357 0.667521 6.49874 35.344 36.7875 34.5192 10.6236 7.51448 2.73352 -0.880513
24.616 36.824 10.8516 19.5418 37.5379 33.3756 -6.00768 -4.41444 -6.18644 -6.467
4.19492 34.501 -3.87416 28.0199 -5.76142 37.9382 -5.84098 -6.1848 27.9169 4.86445
2.30123 -13.1361 21.2026 -4.74363 2.57754 -5.76182 32.0274 -4.22696 2.64529 30.8893
13.8796 11.6631 -3.9429 0.773775 -5.96232 3.56584 15.4305 3.74476 22.1004 1.96045
2.13867 0.603921 20.447 -4.68442 30.057 2.06618 14.5219 5.36253 -2.45122 7.68498
3.78705 1.34541 8.98897 -3.97427 6.36716 5.52508 18.5917 12.565 9.20609 -5.35889
2.9999 21.982 -0.560128 -2.8545 1.68268 26.3605 -5.39176 4.67634 22.4731 15.2039
-1.65799 28.0841 -4.02792 1.63176 9.00729 1.53723 5.41327 -3.8911 -1.03187 -5.23326
6.43388 2.69471 9.63213 22.0861 25.8792 1.31234 -4.99638 -11.219 6.18748 -1.8601
6.29055 15.5131 4.55145 6.91601 -2.28744 18.656 -3.78934 3.33226 -5.07203 1.12851
17.7374 4.15867 -4.82612 3.74277 3.57775 2.819 -3.75873 3.52286 27.2397 -11.1998
18.9502 25.1424 1.49177 16.8516 2.3891 3.91778 24.1215 3.52503 5.94632 -4.39945
-5.38695 18.7387 5.84501 4.93015 2.14058 5.09361 0.94835 7.45558 6.15463 -3.00859
8.37202 -2.27475 7.95645 2.50061 6.29154 4.65988 4.48321 -0.920329 20.4689 26.0905
0.816522 -4.80454 0.477771 18.8327 2.78613 2.78515 24.2354 4.14188 4.13558 8.19103
4.45237 5.96862 10.1735 16.0147 23.1761 -4.28034 -0.00454504 -6.97962 20.0501 23.2414
2.39891 -4.29417 -1.7752 -2.21957 16.1414 -4.73086 -1.57872 8.0304 3.49785 -3.92066
15.2537 5.21114 8.4791 -3.57548 6.01096 -1.35162 3.27694 2.78783 -7.12845 11.2265
12.2153 9.41733 3.58432 4.85248 20.0355 4.20899 11.327 4.04661 11.8993 19.8214
-1.11841 16.2614 7.25901 9.38008 12.7105 -5.28725 14.7288 6.06415 0.530308 -3.31463
3.81165 2.72062 5.53964 23.3924 23.0159 0.161822 4.68 0.736389 2.60019 0.730028
15.7664 17.9048 23.4029 -3.31055 23.0175 3.26512 23.0005 12.8866 -4.28862 -4.5375
1.47049 14.2711 -3.81934 7.81387 21.3848 -4.48157 21.7912 -1.69493 -3.10444 -0.245758
5.13839 0.474811 17.6492 12.8208 14.9074 -3.47846 -4.35693 3.82553 1.94812 -5.46263
1.00721 -4.19564 3.9038 0.473493 3.14891 -0.745056 1.05583 19.5367 3.73636 18.096
20.7072 3.19771 13.3383 0.410284 -1.58427 5.9819 -3.03588 -0.681378 -3.4512 -1.04102
-3.83297 1.11824 2.69807 -4.76357 2.0448 2.40168 -2.78725 13.6884 1.20286 2.27531
2.29031 2.19781 19.2587 15.6338 2.59656 18.1617 -3.32017 1.83698 2.58371 1.24868
3.04589 13.7336 4.24946 15.3763 12.6194 3.38545 3.87369 -2.38641 5.0368 2.33317
2.52974 5.54029 -1.90138 14.7376 8.43841 9.58437 -3.51069 13.3041 3.09467 -2.52375
-0.396554 1.99181 14.9159 18.2788 3.52766 16.1043 6.89855 10.2266 18.1544 5.70663
9.05058 2.5414 8.10277 -4.92736 2.46599 17.0068 -1.36118 -3.392 -1.8272 4.38663
-0.0430863 2.95101 -3.07571 9.83934 1.06947 11.7833 0.100839 -0.0232068 6.71603 2.03538
4.41259 -3.03175 5.20041 10.5583 -0.00115933 1.15288 0.443707 2.08055 3.55898 -4.51549
11.9803 -2.94124 15.545 5.61897 10.6191 1.77359 1.64489 16.2354 2.25919 0.552591
-1.33516 0.58971 12.6698 4.35315 0.0869775 -0.781868 13.9509 -0.544592 1.44672 18.049
17.8617 1.53125 4.64023 -2.65309 10.5447 3.61351 0.416652 -2.02999 17.8662 17.4825
11.4604 17.6104 -2.74537 -3.66807 -3.61933 -1.01624 -4.62829 10.954 -3.21973 16.1883
16.8123 -3.79506 14.0377 0.592452 4.56118 -1.03184 15.4355 -1.11619 -3.08382 2.26876
14.3021 -3.4835 7.21899 -0.214628 15.588 1.272 6.23066 8.07414 -1.83526 1.59957
1.54086 0.606199 -2.50165 -2.64651 11.5274 7.06053 10.08 -3.53561 0.616395 -2.55602
2.21909 -3.32161 4.75373 3.0422 8.55871 3.15788 0.632038 14.5425 2.36483 1.83655
3.91312 3.92068 11.0975 4.5289 5.33169 0.0494343 11.2837 0.51874 -2.26367 9.72785
-2.16813 2.49148 8.37212 4.03254 -1.64013 -2.9914 13.0797 -0.369265 8.68575 3.59922
2.91309 2.19871 -3.55293 4.31266 13.365 0.65307 13.6954 -2.33889 -0.421213 -1.83619
-0.637892 0.607898 9.54843 4.29817 0.964624 0.733152 9.38655 3.869 2.25189 -2.78769
-0.728837 0.894286 -0.312524 11.8624 1.8768 9.22297 8.75739 2.25719 12.9999 -1.52564
10.7741 8.87071 -1.76165 4.88166 8.96305 4.2866 3.02491 -2.50523 8.4788 13.565
14.3909 6.21106 -1.16431 13.5656 13.8837 13.5953 12.408 13.6303 1.22558 3.31782
1.44275 -1.20936 11.2845 3.02349 4.61135 8.64656 -1.54615 1.30947 12.2648 1.30988
-2.38125 -0.262788 0.737203 -0.297146 10.9857 -1.4223 6.77694 12.0074 -1.57779 2.78992
3.04606 -2.17246 1.65843 -1.94285 -0.78446 10.6915 10.3876 5.08319 -1.51069 3.65988
8.21235 1.31206 -0.157091 9.25837 5.9106 -0.535525 0.732085 4.34706 10.2748 -1.10803
-0.0837856 1.70112 6.63733 -2.49064 6.53296 4.35336 -2.30713 8.93028 1.90167 2.58032
-2.48798 -1.97182 -1.79555 -1.93799 7.58235 3.8673 6.39581 5.96773 5.72519 3.80971
-0.7642 2.74034 5.96167 6.98861 -2.32246 2.77546 -0.0814346 0.474465 4.67906 0.0676959
4.52951 -1.53305 6.6942 5.20956 7.48596 1.56636 0.977839 -2.07342 -0.126761 3.63196
2.36715 4.62538 4.93142 8.36601 8.5044 6.33445 8.44721 8.4475 5.1064 -1.0497
4.69938 8.06535 -1.36667 1.44543 8.06072 3.0774 5.25827 0.362647 1.2062 4.60536
7.53355 -0.39952 3.05922 -1.82754 0.568776 6.47417 7.08653 -0.32576 7.4039 4.06866
1.82327 -0.56786 6.05337 6.75181 5.54062 2.68286 0.0899825 3.44899 1.53256 5.20582
0.181146 1.79007 2.49811 6.68948 -1.92806 -1.7884 -0.943839 -1.57275 3.97015 0.0166369
-1.94971 2.2021 4.56883 5.8945 -1.55318 3.21267 0.820779 -1.52544 5.28693 4.78492
4.31694 -0.128422 4.54625 5.57389 5.16385 -1.86131 0.941257 -1.24675 3.05971 5.42224
4.53851 5.95431 4.47946 0.525285 1.83937 4.65124 4.22399 -0.0944684 1.08033 -1.70218
0.897761 2.35115 5.04294 -1.25738 6.28652 -0.904181 6.29579 3.88883 -0.654512 6.2985
2.39061 6.0719 -0.221175 2.51114 -0.601826 6.34933 0.250454 1.85111 1.42556 5.73052
-1.51511 3.04081 5.26372 0.0219544 5.55003 4.8006 3.23957 5.60391 -0.257995 -0.558993
1.161 4.23278 1.26091 4.24634 5.23465 3.3812 0.749388 -0.93592 1.70533 5.39951
-1.31506 4.2055 -1.52449 -1.41986 0.0941844 0.581986 2.50214 4.66414 -1.55249 0.542149
4.65491 -0.234118 -1.25057 -1.21623 3.88691 3.6152 -0.347105 3.22713 0.9309 4.00023
3.701 -1.50839 0.682697 -1.03229 3.52926 4.69477 2.0734 -0.140115 -0.648154 1.81857
3.27043 2.30553 -1.09215 4.07706 1.27397 -1.41038 1.79388 -0.65765 1.91668 -0.644546
-0.785773 1.18354 2.67462 2.9108 -0.142723 4.82268 4.7594 4.69721 0.0529588 4.70489
4.57219 4.42004 0.743473 4.50117 -1.28062 4.47987 2.47392 0.732193 -0.531969 3.50839
0.246782 2.89866 -0.862846 -0.138821 4.15133 0.594559 1.43402 1.56503 -1.13486 0.286294
3.7902 -0.435495 1.7369 1.99819 0.847544 1.31233 -1.23511 3.76201 -1.15474 -0.287699
2.09611 -1.2642 -1.02945 -0.989613 2.9799 2.95939 2.92911 2.89735 0.871724 4.11973
-1.24357 2.65333 -0.869439 3.53968 -0.654371 -0.974428 2.35573 2.40392 3.34841 1.04226
1.60634 -1.18145 3.85353 -0.0665682 -0.687826 0.463149 2.22618 0.0158639 0.322128 3.52232
3.82481 3.73903 -0.580063 3.74928 -0.262147 1.20563 -1.09 0.573497 3.34026 2.50261
3.59244 2.93581 1.95759 -0.497834 1.30304 -0.805934 0.727029 3.39672 1.63197 1.22799
3.36419 0.9433 -0.48027 3.20235 0.774775 0.121506 1.89796 -0.981086 1.63464 -0.311276
0.708304 0.589515 3.08975 -1.02319 -0.960373 2.54124 -1.04973 -0.86539 2.08103 -0.823843
2.3245 2.33145 -0.64512 0.107998 2.28664 -1.04019 2.06681 3.13492 0.903298 -0.131334
-0.860376 0.341681 -0.745062 2.79153 1.33789 1.90719 0.273206 -0.138214 -0.998845 -0.338853
0.919154 1.86494 1.26445 0.536892 -0.607985 0.973853 1.78193 3.13289 1.51877 2.17553
3.11172 3.06613 -0.534262 -0.932976 0.673569 2.48652 -0.733572 2.94907 1.58262 -0.462942
-0.503603 1.02637 1.71591 0.689045 0.0142115 2.78248 2.91059 3.01339 1.60084 -0.851185
0.389819 -0.0385024 0.159557 1.33464 -0.318184 2.1873 2.58201 1.84454 -0.225154 0.344099
-0.861249 -0.812383 -0.609901 2.99453 -0.883191 0.763295 -0.739561 0.975409 1.86513 1.20866
-0.699513 1.85255 1.85071 -0.759875 1.88995 -0.878074 1.65681 0.142616 0.723957 -0.383498
1.09972 -0.647434 2.3613 0.495626 1.40487 -0.180944 1.54788 0.700641 -0.498612 -0.849105
1.90332 0.474904 -0.541826 1.11805 2.72825 1.44099 2.62678 2.6267 1.55077 -0.497178
2.5672 -0.663979 2.69575 2.13093 -0.801519 0.601844 0.0257714 0.849333 -0.483419 0.67012
2.47457 -0.428861 1.28193 -0.136974 0.192434 -0.0565201 0.246496 2.52872 2.34749 -0.283562
-0.741046 0.340978 0.956851 0.748267 1.6406 1.08885 -0.314398 1.89996 1.14315 -0.568964
2.19553 0.533216 0.642597 -0.728785 -0.39832 -0.690972 0.452248 1.29428 -0.746671 2.42927
0.0521513 -0.672536 -0.634901 0.685474 1.45588 -0.598427 1.38804 0.908002 1.47301 -0.744764
1.31027 2.02705 -0.203583 -0.563548 0.327387 1.23969 1.67647 -0.0709925 0.070771 -0.725376
1.40245 1.27754 -0.480912 -0.479589 -0.202851 2.5799 1.15969 0.212908 0.523586 -0.599663
1.84874 2.24704 2.25693 0.708941 -0.691971 2.19264 0.753373 0.925138 0.144145 -0.100307
-0.391387 -0.313398 1.04156 2.30926 2.11636 0.570105 0.330172 -0.43634 1.0737 2.56833
1.13453 1.46622 2.01579 -0.64797 0.388333 1.66732 0.896078 -0.525853 -0.299235 -0.398477
1.19081 0.544041 1.8966 0.408331 0.548435 -0.0069719 -0.0220511 2.27667 -0.619159 -0.139394
-0.588534 -0.596499 0.101689 0.220167 -0.63512 -0.544117 0.75799 1.13294 -0.208223 -0.511889
1.76426 -0.636533 1.17626 1.04176 1.02928 -0.242081 1.48947 0.221626 -0.487769 1.27286
1.15984 0.74612 0.808056 0.53602 0.591416 0.994225 -0.45441 2.25821 -0.624588 0.887223