# vtk DataFile Version 2.0
tracks
ASCII
DATASET POLYDATA
POINTS 25060 float
-1.001 -0.05 0.0011 -0.99549 -0.0500011 0.00110423 -0.989981 -0.0500023 0.00110854 -0.984471 -0.0500035
0.00111289 -0.978962 -0.0500047 0.0011173 -0.973452 -0.0500059 0.00112175 -0.966891 -0.0500073 0.00112706
-0.960329 -0.0500087 0.00113238 -0.953767 -0.0500102 0.00113779 -0.947206 -0.0500118 0.00114326 -0.940644
-0.0500133 0.00114879 -0.934083 -0.0500148 0.00115445 -0.927521 -0.0500164 0.00116025 -0.920959 -0.0500181
0.00116614 -0.914397 -0.0500198 0.00117212 -0.907836 -0.0500215 0.0011782 -0.901275 -0.0500232 0.00118432
-0.894715 -0.050025 0.00119044 -0.888154 -0.0500269 0.00119668 -0.881594 -0.0500288 0.00120301 -0.875033
-0.0500308 0.00120943 -0.868472 -0.0500328 0.00121604 -0.861912 -0.0500349 0.00122279 -0.855351 -0.050037
0.00122965 -0.84879 -0.0500393 0.00123663 -0.84223 -0.0500416 0.00124373 -0.835672 -0.0500439 0.00125092
-0.829114 -0.0500464 0.00125805 -0.822556 -0.0500489 0.00126531 -0.815998 -0.0500515 0.0012727 -0.80944
-0.0500543 0.0012802 -0.802897 -0.050057 0.00128794 -0.796353 -0.0500599 0.00129583 -0.78981 -0.0500629
0.00130384 -0.783267 -0.0500661 0.001312 -0.776724 -0.0500694 0.00132031 -0.77029 -0.0500726 0.00132862
-0.763856 -0.050076 0.00133678 -0.757423 -0.0500796 0.00134508 -0.750989 -0.0500834 0.00135354 -0.744555
-0.0500873 0.00136214 -0.737905 -0.0500913 0.0013714 -0.731256 -0.0500956 0.0013808 -0.724606 -0.0501002
0.00139039 -0.717956 -0.0501049 0.00140017 -0.711306 -0.0501099 0.00141014 -0.704715 -0.0501149 0.00142022
-0.698124 -0.0501203 0.00143011 -0.691533 -0.0501259 0.00144021 -0.684942 -0.0501318 0.00145053 -0.678351
-0.0501381 0.00146106 -0.671806 -0.0501444 0.00147197 -0.665261 -0.0501509 0.00148297 -0.658716 -0.0501579
0.00149419 -0.65217 -0.0501653 0.00150561 -0.645625 -0.0501731 0.00151725 -0.639089 -0.050181 0.00152917
-0.632552 -0.0501895 0.00154068 -0.626016 -0.0501985 0.00155245 -0.619479 -0.0502082 0.00156451 -0.612943
-0.0502185 0.00157684 -0.606414 -0.0502288 0.00158985 -0.599885 -0.0502396 0.00160275 -0.593356 -0.0502513
0.0016159 -0.586827 -0.0502638 0.0016293 -0.580297 -0.0502771 0.00164296 -0.573782 -0.0502908 0.00165707
-0.567267 -0.0503056 0.00167006 -0.560752 -0.0503216 0.00168334 -0.554237 -0.0503388 0.0016969 -0.547722
-0.0503573 0.00171075 -0.541221 -0.0503761 0.0017257 -0.53472 -0.0503958 0.00173991 -0.52822 -0.0504175
0.00175435 -0.521719 -0.0504411 0.00176901 -0.515218 -0.0504667 0.00178389 -0.508738 -0.0504927 0.00179944
-0.502257 -0.0505218 0.00181126 -0.495777 -0.0505541 0.00182319 -0.489296 -0.0505895 0.00183522 -0.482815
-0.0506281 0.00184737 -0.476355 -0.050667 0.00186253 -0.469895 -0.0507102 0.00187536 -0.463435 -0.0507584
0.00188856 -0.456974 -0.0508117 0.00190213 -0.450514 -0.0508701 0.00191607 -0.444098 -0.0509282 0.00193279
-0.437682 -0.0509956 0.00194665 -0.431266 -0.0510747 0.00196049 -0.424851 -0.0511637 0.00197437 -0.418434
-0.0512628 0.00198829 -0.415232 -0.0513188 0.001995 -0.41203 -0.0513798 0.00200099 -0.408828 -0.0514459
0.00200676 -0.405627 -0.0515176 0.00201235 -0.402424 -0.0515949 0.00201841 -0.399207 -0.0516776 0.00202601
-0.39599 -0.0517748 0.00203223 -0.392773 -0.0518825 0.00203805 -0.389557 -0.0519981 0.00204415 -0.386336
-0.0521195 0.00205039 -0.38315 -0.0522415 0.0020564 -0.379965 -0.0523851 0.00206377 -0.376781 -0.0525484
0.00207167 -0.373599 -0.0527307 0.00207956 -0.370405 -0.0529308 0.00208845 -0.367157 -0.0531483 0.00210031
-0.363913 -0.0534121 0.00211112 -0.360669 -0.0536878 0.00212166 -0.357426 -0.0539654 0.00213215 -0.35416
-0.0542479 0.00214211 -0.350768 -0.0545465 0.00214703 -0.347373 -0.0548178 0.00215474 -0.343978 -0.0550722
0.00216271 -0.340581 -0.0553122 0.00217037 -0.337202 -0.0555437 0.0021779 -0.333571 -0.0558081 0.00218673
-0.329935 -0.0559804 0.00219051 -0.326298 -0.0561153 0.00219298 -0.32266 -0.0562311 0.00219533 -0.31904
-0.0563343 0.00219833 -0.315547 -0.0564376 0.00220549 -0.312052 -0.0565162 0.00220598 -0.308558 -0.0565812
0.00220491 -0.305063 -0.0566382 0.00220356 -0.30157 -0.0566933 0.0022031 -0.298204 -0.0567627 0.00220694
-0.294838 -0.0567993 0.00220512 -0.291471 -0.0568248 0.002202 -0.288105 -0.0568467 0.00219903 -0.28474
-0.0568677 0.00219785 -0.281419 -0.0568966 0.00220361 -0.278098 -0.0569074 0.00220188 -0.274777 -0.0569104
0.0021983 -0.271456 -0.0569087 0.0021946 -0.268135 -0.0569079 0.00219192 -0.264847 -0.0569265 0.00219402
-0.261559 -0.0569209 0.00219111 -0.258271 -0.0569098 0.00218704 -0.254983 -0.0568989 0.00218296 -0.251694
-0.0568909 0.00218043 -0.248411 -0.0568946 0.00218448 -0.245129 -0.0568833 0.00218174 -0.241846 -0.0568659
0.00217717 -0.238563 -0.0568451 0.00217229 -0.23528 -0.0568267 0.00216823 -0.232 -0.0568279 0.00216844
-0.228721 -0.0568083 0.00216402 -0.225441 -0.0567852 0.00215843 -0.222162 -0.0567645 0.00215286 -0.218882
-0.0567507 0.0021484 -0.2156 -0.0567578 0.00214835 -0.212318 -0.0567438 0.00214378 -0.209036 -0.056724
0.00213795 -0.205755 -0.056704 0.00213201 -0.202472 -0.0566872 0.00212782 -0.199201 -0.0566838 0.00213084
-0.195929 -0.0566675 0.00212647 -0.192658 -0.0566483 0.00212025 -0.189386 -0.0566296 0.00211404 -0.186115
-0.056615 0.00210998 -0.182832 -0.056614 0.00211412 -0.179549 -0.0566 0.00210939 -0.176266 -0.056582
0.00210211 -0.172984 -0.0565634 0.00209459 -0.169701 -0.0565489 0.00208815 -0.166404 -0.0565529 0.00208683
-0.163107 -0.0565392 0.00208004 -0.159809 -0.0565225 0.00207207 -0.156512 -0.0565073 0.00206408 -0.153214
-0.0564963 0.00205802 -0.149939 -0.0564985 0.00206035 -0.146664 -0.056489 0.00205369 -0.143389 -0.056478
0.0020449 -0.140114 -0.0564681 0.00203572 -0.136839 -0.0564615 0.00202752 -0.13359 -0.0564672 0.00202602
-0.130341 -0.0564638 0.00201651 -0.127092 -0.0564605 0.00200544 -0.123843 -0.0564587 0.0019939 -0.120594
-0.0564592 0.00198253 -0.117313 -0.0564705 0.00197665 -0.114031 -0.0564765 0.00196414 -0.11075 -0.056485
0.00195152 -0.107468 -0.0564964 0.00193929 -0.104187 -0.0565107 0.00192746 -0.10092 -0.0565354 0.00192191
-0.0976536 -0.0565643 0.00190807 -0.094387 -0.0565961 0.00189166 -0.0911203 -0.0566302 0.00187669 -0.0878538
-0.0566684 0.00185987 -0.0862118 -0.0566907 0.00185147 -0.0845699 -0.0567125 0.001841 -0.0829279 -0.0567343
0.00182928 -0.0812859 -0.0567569 0.00181733 -0.0796441 -0.0567816 0.00180654 -0.0779946 -0.0568093 0.00179803
-0.0763452 -0.0568375 0.0017884 -0.0746958 -0.0568665 0.00177827 -0.0730465 -0.056897 0.00176861 -0.071397
-0.0569298 0.00176002 -0.0697381 -0.0569656 0.00175282 -0.0680792 -0.0570023 0.00174475 -0.0664204 -0.0570403
0.00173607 -0.0647616 -0.05708 0.00172721 -0.0631026 -0.0571226 0.00171928 -0.0614558 -0.0571685 0.00171282
-0.0598089 -0.0572148 0.0017049 -0.0581621 -0.0572617 0.001696 -0.0565153 -0.0573104 0.00168703 -0.0548683
-0.057362 0.00167814 -0.0532233 -0.0574169 0.00166941 -0.0515783 -0.0574737 0.0016595 -0.0499334 -0.0575323
0.0016486 -0.0482886 -0.0575931 0.00163713 -0.0466431 -0.0576589 0.00162723 -0.0450071 -0.05773 0.00161963
-0.0433711 -0.057799 0.001609 -0.0417349 -0.0578665 0.00159606 -0.0400989 -0.0579353 0.00158289 -0.038463
-0.05801 0.00156993 -0.036846 -0.0580905 0.00155743 -0.035229 -0.0581691 0.00154348 -0.0336118 -0.058246
0.00152817 -0.0319947 -0.0583232 0.00151191 -0.0303779 -0.05841 0.00149818 -0.0287779 -0.0585074 0.00148772
-0.0271769 -0.058587 0.00147381 -0.0255753 -0.0586516 0.00145702 -0.0239736 -0.0587136 0.00144007 -0.0223779
-0.0587926 0.00142394 -0.0208125 -0.058891 0.00140907 -0.0192457 -0.0589619 0.00139383 -0.0176781 -0.0590134
0.00137813 -0.0161104 -0.059062 0.00136177 -0.0145607 -0.0591174 0.00134536 -0.0127898 -0.0592046 0.00132673
-0.0110175 -0.059253 0.00130843 -0.00924477 -0.0592868 0.00129047 -0.00747201 -0.0593164 0.00127295 -0.00570655
-0.0593434 0.00125603 -0.00397213 -0.0593909 0.00124132 -0.00223714 -0.0594064 0.00122542 -0.000502125 -0.0594173
0.001209 0.00123291 -0.0594237 0.00119207 0.00296667 -0.0594255 0.00117493 0.00465506 -0.0594446 0.00115632
0.00634356 -0.0594386 0.0011394 0.00803206 -0.059431 0.00112258 0.00972055 -0.0594213 0.00110598 0.0114087
-0.0594097 0.0010896 0.0131397 -0.0594203 0.00107464 0.0148706 -0.0594049 0.00105674 0.0166015 -0.0593859
0.00103795 0.0183323 -0.0593641 0.00101833 0.0200675 -0.0593449 0.000997913 0.0216708 -0.0593458 0.000977896
0.023274 -0.0593296 0.000957477 0.024877 -0.0593077 0.00093691 0.0264801 -0.0592862 0.000916512 0.0280855
-0.05927 0.000896571 0.0296717 -0.0592676 0.000877878 0.0312579 -0.059251 0.000857851 0.032844 -0.0592287
0.00083705 0.03443 -0.0592053 0.000815779 0.0360171 -0.0591848 0.000793882 0.0376213 -0.0591745 0.000770696
0.0392254 -0.0591544 0.000748446 0.0408295 -0.0591319 0.000726628 0.0424337 -0.0591101 0.000705296 0.0440381
-0.0590915 0.000684549 0.0456568 -0.0590823 0.000664495 0.0472754 -0.059063 0.000643513 0.048894 -0.0590402
0.000622003 0.0505125 -0.059016 0.000600087 0.0521316 -0.0589918 0.000577692 0.0537581 -0.058974 0.000554259
0.0553844 -0.0589473 0.00053167 0.0570107 -0.0589189 0.000509402 0.058637 -0.0588904 0.000487524 0.0602638
-0.0588631 0.000466 0.0618925 -0.0588438 0.000444645 0.0635211 -0.0588157 0.000422847 0.0651497 -0.0587851
0.000400646 0.0667782 -0.058753 0.000378046 0.0684075 -0.0587201 0.000354929 0.0700329 -0.0586925 0.000330141
0.0716583 -0.0586583 0.00030734 0.0732836 -0.0586241 0.000284859 0.074909 -0.0585901 0.000262735 0.0765348
-0.0585565 0.000240895 0.0781578 -0.0585287 0.000217275 0.0797807 -0.0584943 0.000195387 0.0814035 -0.0584584
0.000173213 0.0830263 -0.0584211 0.000150702 0.0846498 -0.0583826 0.000128006 0.0862857 -0.0583481 0.000103183
0.0879215 -0.0583074 8.28462e-05 0.0895573 -0.0582681 6.30648e-05 0.0911932 -0.0582306 4.39064e-05 0.0928294
-0.0581952 2.51922e-05 0.0961331 -0.0581395 -1.7086e-05 0.0994367 -0.0580831 -6.171e-05 0.10274 -0.0580282
-0.000108791 0.106044 -0.0579759 -0.000155549 0.109348 -0.057925 -0.000202187 0.112674 -0.0578739 -0.000246776
0.116001 -0.0578269 -0.000290876 0.119328 -0.0577808 -0.000334053 0.122655 -0.0577354 -0.000380253 0.125982
[...]
POINT_DATA 25060
FIELD attributes 4
age 1 25060 float
0 0.000332661 0.000665332 0.000998014 0.00133071 0.00166341 0.00205965 0.00245591 0.00285219 0.00324848 0.0036448
0.00404114 0.00443751 0.00483389 0.0052303 0.00562673 0.0060231 0.00641949 0.00681591 0.00721235 0.00760882
0.00800532 0.00840185 0.00879841 0.009195 0.00959161 0.00998808 0.0103846 0.0107811 0.0111777 0.0115743
0.01197 0.0123658 0.0127617 0.0131575 0.0135534 0.0139427 0.0143321 0.0147215 0.0151109 0.0155004
0.015903 0.0163057 0.0167084 0.0171112 0.017514 0.0179133 0.0183127 0.0187122 0.0191117 0.0195113
0.0199081 0.0203051 0.0207022 0.0210993 0.0214965 0.0218933 0.0222901 0.0226871 0.0230842 0.0234814
0.0238782 0.0242751 0.0246723 0.0250695 0.0254668 0.0258634 0.0262603 0.0266573 0.0270544 0.0274518
0.0278483 0.0282453 0.0286424 0.0290398 0.0294374 0.0298339 0.030231 0.0306283 0.0310259 0.0314239
0.0318207 0.0322185 0.0326167 0.0330153 0.0334143 0.0338106 0.0342087 0.0346074 0.0350066 0.0354064
0.0356065 0.0358067 0.0360073 0.036208 0.0364092 0.0366117 0.0368136 0.0370151 0.0372164 0.0374182
0.0376187 0.0378178 0.0380162 0.0382142 0.0384133 0.0386177 0.038818 0.0390169 0.0392152 0.0394147
0.039624 0.0398304 0.0400359 0.040241 0.0404443 0.0406601 0.0408779 0.0410961 0.0413142 0.0415315
0.0417434 0.0419531 0.0421624 0.0423716 0.0425812 0.0427853 0.0429874 0.0431889 0.0433904 0.0435926
0.043795 0.0439946 0.0441936 0.0443927 0.0445926 0.0447931 0.0449911 0.0451885 0.0453859 0.045584
0.045785 0.045983 0.0461803 0.0463778 0.0465761 0.0467771 0.0469753 0.0471728 0.0473702 0.0475684
0.0477697 0.0479681 0.0481659 0.0483636 0.0485624 0.0487636 0.0489618 0.0491592 0.0493566 0.0495549
0.049757 0.0499561 0.0501546 0.0503531 0.0505524 0.0507558 0.0509562 0.0511558 0.0513555 0.0515559
0.0517578 0.0519571 0.0521557 0.0523545 0.0525538 0.0527545 0.0529524 0.0531501 0.0533479 0.0535461
0.0537495 0.05395 0.0541507 0.0543515 0.0545525 0.0547533 0.0549539 0.0551546 0.0553556 0.0555566
0.0556577 0.0557588 0.0558599 0.0559611 0.0560624 0.0561645 0.0562664 0.0563681 0.0564698 0.0565715
0.056674 0.0567763 0.0568787 0.0569811 0.0570836 0.0571856 0.0572874 0.057389 0.0574906 0.0575921
0.0576937 0.0577951 0.0578964 0.0579977 0.0580992 0.0582004 0.0583013 0.058402 0.0585025 0.0586029
0.0587022 0.0588014 0.0589006 0.0589997 0.0590988 0.0591967 0.0592947 0.0593927 0.0594905 0.0595874
0.0596819 0.0597768 0.0598718 0.0599668 0.0600605 0.0601673 0.0602742 0.0603811 0.0604878 0.0605939
0.0606981 0.0608024 0.0609066 0.0610109 0.0611151 0.0612168 0.0613181 0.0614193 0.0615204 0.0616213
0.0617251 0.0618282 0.0619313 0.0620343 0.0621377 0.0622338 0.0623292 0.0624243 0.0625193 0.0626146
0.0627094 0.0628036 0.0628976 0.0629916 0.0630861 0.0631825 0.0632781 0.0633733 0.0634686 0.0635642
0.0636614 0.063758 0.0638544 0.063951 0.0640478 0.064146 0.0642432 0.0643404 0.0644376 0.0645351
0.0646336 0.0647314 0.0648293 0.0649273 0.0650256 0.0651247 0.0652229 0.0653211 0.0654194 0.0655178
0.0656172 0.0657157 0.0658142 0.0659129 0.0660117 0.0661123 0.0662118 0.0663114 0.066411 0.0665108
0.0667146 0.0669185 0.0671227 0.067327 0.0675318 0.0677382 0.0679447 0.0681515 0.0683589 0.0685666
0.0687833 0.0689865 0.0691897 0.0693931 0.0695968 0.0698095 0.0700158 0.0702218 0.0704278 0.070635
0.0708551 0.0710629 0.0712694 0.071476 0.0716838 0.0718977 0.0721054 0.0723124 0.0725196 0.0727297
0.0729513 0.0731608 0.0733674 0.0735739 0.0737832 0.0740047 0.0742148 0.0744219 0.0746292 0.0748398
0.0750624 0.0752738 0.0754817 0.0756896 0.0758994 0.0761158 0.0763258 0.0765337 0.0767418 0.0769527
0.0771715 0.0773834 0.0775923 0.0778011 0.0780124 0.0782316 0.0784444 0.0786543 0.0788645 0.079079
0.0793086 0.0795288 0.0797442 0.0799596 0.0801783 0.0804129 0.0806411 0.0808658 0.0810909 0.0813227
0.0815701 0.0818062 0.0820358 0.0822656 0.0824994 0.0827326 0.08296 0.0831851 0.0834112 0.0836426
0.0838658 0.0840809 0.0842919 0.0845033 0.0847161 0.0849353 0.0851496 0.0853626 0.085576 0.0857916
0.0860139 0.0862283 0.08644 0.0866522 0.0868662 0.0873057 0.0877434 0.0881843 0.0886273 0.0890733
0.0895096 0.0899608 0.090412 0.0908631 0.091314 0.0917524 0.0922042 0.0926562 0.0931081 0.0935597
0.0939963 0.094448 0.0949016 0.0953551 0.0958074 0.0962481 0.0967008 0.0971548 0.0976086 0.0980601
0.0984967 0.0989481 0.0994018 0.0998555 0.100307 0.100748 0.1012 0.101653 0.102107 0.102559
0.102998 0.103449 0.103903 0.104356 0.104807 0.105253 0.105709 0.106169 0.106628 0.107083
0.107524 0.107978 0.108436 0.108894 0.109349 0.109781 0.110223 0.110669 0.111114 0.111555
0.111987 0.112433 0.112883 0.113333 0.113779 0.114218 0.114667 0.115119 0.11557 0.116018
0.116453 0.1169 0.117349 0.117798 0.118246 0.118684 0.119131 0.119578 0.120024 0.12047
0.120904 0.121347 0.12179 0.122231 0.122671 0.123107 0.123546 0.123983 0.12442 0.124856
0.125223 0.12559 0.125958 0.126325 0.126687 0.12719 0.127694 0.128196 0.128697 0.129199
0.130065 0.130931 0.131798 0.132664 0.133529 0.134391 0.135256 0.136121 0.136986 0.137849
0.138707 0.13957 0.140434 0.141297 0.14216 0.143018 0.14388 0.144743 0.145605 0.146467
0.147329 0.14819 0.149052 0.149914 0.150775 0.151637 0.152497 0.153358 0.154219 0.155075
0.155933 0.156789 0.15765 0.15851 0.159369 0.160222 0.16108 0.16194 0.1628 0.163659
0.164519 0.165377 0.166237 0.167096 0.167953 0.168804 0.16966 0.170519 0.171378 0.172234
0.17309 0.173946 0.174805 0.175663 0.176518 0.177368 0.178223 0.179081 0.179938 0.180795
0.181652 0.182508 0.183365 0.184222 0.185076 0.185925 0.186779 0.187635 0.188492 0.189347
0.190202 0.191057 0.191913 0.192769 0.193624 0.194479 0.195333 0.196189 0.197045 0.197899
0.198753 0.199607 0.200462 0.201317 0.202168 0.203015 0.203866 0.204721 0.205575 0.206428
0.20728 0.208133 0.208986 0.20984 0.21069 0.211536 0.212386 0.21324 0.214092 0.214944
0.215794 0.216645 0.217498 0.21835 0.219199 0.220045 0.220894 0.221746 0.222597 0.223447
0.224296 0.225146 0.225997 0.226849 0.227697 0.228542 0.22939 0.230241 0.231091 0.23194
0.232787 0.233636 0.234486 0.235336 0.236184 0.237028 0.237875 0.238725 0.239574 0.240422
0.241268 0.242116 0.242965 0.243814 0.244661 0.245507 0.246354 0.247203 0.248051 0.248898
0.249743 0.25059 0.251438 0.252286 0.253132 0.253977 0.254823 0.255671 0.256518 0.257364
0.258208 0.259054 0.2599 0.260748 0.261593 0.262434 0.263279 0.264126 0.264972 0.265817
0.26666 0.267505 0.268351 0.269197 0.270041 0.270882 0.271726 0.272572 0.273418 0.274261
0.275103 0.275946 0.276792 0.277637 0.27848 0.27932 0.280164 0.281009 0.281853 0.282696
0.283536 0.284379 0.285223 0.286068 0.28691 0.287749 0.288591 0.289436 0.290279 0.291121
0.29196 0.292802 0.293645 0.294489 0.29533 0.296168 0.29701 0.297853 0.298696 0.299537
0.300374 0.301215 0.302058 0.302901 0.303741 0.304578 0.305418 0.306261 0.307103 0.307943
0.308779 0.309619 0.31046 0.311302 0.312142 0.312978 0.313817 0.314659 0.3155 0.316339
0.317174 0.318013 0.318853 0.319695 0.320534 0.321369 0.322208 0.323049 0.323889 0.324728
0.325561 0.326399 0.327239 0.32808 0.328918 0.329753 0.330591 0.331431 0.33227 0.333108
0.33394 0.334777 0.335616 0.336456 0.337293 0.338127 0.338965 0.339804 0.340642 0.341479
0.34231 0.343146 0.343985 0.344823 0.34566 0.346493 0.34733 0.348168 0.349005 0.349841
0.350671 0.351507 0.352344 0.353181 0.354017 0.35485 0.355686 0.356523 0.35736 0.358194
0.359024 0.359858 0.360694 0.361531 0.362366 0.363198 0.364033 0.364869 0.365705 0.366539
0.367367 0.368201 0.369036 0.369872 0.370706 0.371537 0.372371 0.373207 0.374042 0.374874
0.375702 0.376535 0.377369 0.378204 0.379037 0.379868 0.380701 0.381536 0.38237 0.383201
0.384028 0.38486 0.385693 0.386527 0.38736 0.38819 0.389022 0.389856 0.390689 0.391519
0.392346 0.393176 0.394009 0.394842 0.395674 0.396503 0.397334 0.398167 0.398999 0.399829
0.400654 0.401484 0.402316 0.403148 0.403978 0.404807 0.405637 0.406469 0.4073 0.408129
0.408954 0.409783 0.410613 0.411444 0.412274 0.413102 0.413932 0.414762 0.415592 0.416422
0.417249 0.418078 0.418908 0.419738 0.420567 0.421394 0.422222 0.423052 0.423881 0.424708
0.425531 0.426358 0.427187 0.428016 0.428844 0.429669 0.430497 0.431326 0.432154 0.43298
0.433802 0.434628 0.435456 0.436283 0.43711 0.437935 0.438762 0.439589 0.440416 0.441241
0.442063 0.442888 0.443714 0.444541 0.445367 0.446191 0.447017 0.447843 0.448669 0.449493
0.450314 0.451137 0.451963 0.452788 0.453613 0.454436 0.455261 0.456086 0.456911 0.457734
0.458554 0.459377 0.460201 0.461026 0.46185 0.462672 0.463496 0.464319 0.465143 0.465965
0.466785 0.467606 0.46843 0.469253 0.470076 0.470897 0.47172 0.472543 0.473365 0.474187
0.475005 0.475826 0.476649 0.477471 0.478293 0.479113 0.479935 0.480757 0.481578 0.482399
0.483216 0.484036 0.484858 0.485679 0.4865 0.487319 0.48814 0.488961 0.489782 0.490601
0.491418 0.492237 0.493058 0.493878 0.494698 0.495517 0.496337 0.497157 0.497976 0.498795
0.499611 0.50043 0.501249 0.502069 0.502888 0.503706 0.504525 0.505344 0.506163 0.506981
0.507796 0.508614 0.509433 0.510251 0.51107 0 0.000332686 0.000665382 0.000998088 0.0013308
0.00166353 0.00176261 0.00186169 0.00196078 0.00205986 0.0021589 0.00245607 0.00275325 0.00305044 0.00334764
0.00364486 0.00404115 0.00443746 0.0048338 0.00523015 0.00562652 0.00602289 0.00641928 0.00681569 0.00721212
0.00760858 0.00800487 0.0084012 0.00879755 0.00919393 0.00959033 0.00998463 0.010379 0.0107733 0.0111677
0.0115622 0.0119497 0.0123373 0.012725 0.0131126 0.0135003 0.0138956 0.0142908 0.0146861 0.0150815
0.0154769 0.0158865 0.0162962 0.0167059 0.0171157 0.0175255 0.0179223 0.0183192 0.0187161 0.0191131
0.0195101 0.0199069 0.0203038 0.0207008 0.0210978 0.021495 0.0218918 0.0222887 0.0226857 0.0230828
0.02348 0.0238767 0.0242736 0.0246707 0.0250678 0.0254651 0.0258618 0.0262587 0.0266557 0.0270529
0.0274503 0.0278468 0.0282437 0.0286409 0.0290382 0.0294358 0.0298322 0.0302292 0.0306265 0.031024
0.0314219 0.0318184 0.0322158 0.0326136 0.0330117 0.0334102 0.033806 0.0342034 0.0346011 0.0349994
0.0353982 0.0357941 0.0361911 0.0365886 0.0369859 0.0373848 0.0375854 0.037786 0.0379864 0.0381867
0.0383875 0.038586 0.0387837 0.0389809 0.0391774 0.0393742 0.0395722 0.0397693 0.039966 0.0401625
0.0403582 0.0405338 0.0407088 0.0408848 0.0410607 0.0412811 0.0413233 0.0413656 0.0414078 0.04145
0.0414922 0.0417155 0.0419403 0.0421649 0.0423893 0.0426134 0.042825 0.0430363 0.0432473 0.043458
0.0436684 0.0438733 0.0440777 0.0442804 0.0444831 0.0446856 0.0447857 0.0448859 0.0449862 0.0450864
0.0451868 0.0452858 0.0453847 0.0454836 0.0455826 0.0456815 0.0458801 0.0460787 0.0462773 0.0464761
0.0466753 0.0468749 0.0470741 0.0472734 0.0474728 0.0476721 0.0478726 0.0480721 0.0482709 0.0484698
0.0486686 0.0488679 0.0490668 0.049266 0.0494653 0.0496643 0.0498645 0.0500647 0.050265 0.0504653
0.0506655 0.0508664 0.0510673 0.0512685 0.0514697 0.0516708 0.0518711 0.0520715 0.052272 0.0524725
0.0526734 0.0528747 0.0530751 0.0532757 0.0534764 0.0536773 0.0538812 0.0540843 0.0542873 0.0544901
0.0546928 0.054897 0.0551001 0.0553031 0.0555061 0.0557091 0.0559142 0.0561183 0.0563224 0.0565266
0.0567306 0.0568307 0.0569309 0.0570312 0.0571316 0.0572321 0.0573249 0.0574176 0.0575102 0.0576028
0.0576952 0.0577949 0.0578946 0.0579944 0.0580942 0.058194 0.0582959 0.0583976 0.0584993 0.0586008
0.0587022 0.0588036 0.0589051 0.0590065 0.0591079 0.0592093 0.0593105 0.0594115 0.0595123 0.059613
0.0597136 0.0598128 0.059912 0.0600111 0.0601102 0.0602093 0.0603104 0.0604113 0.0605121 0.0606128
0.0607134 0.0608134 0.0609133 0.0610133 0.0611133 0.0612132 0.0613127 0.0614121 0.0615114 0.0616106
0.0617097 0.0618077 0.0619057 0.0620036 0.0621016 0.0621995 0.0622965 0.0623934 0.0624902 0.062587
0.0626837 0.0627812 0.0628787 0.0629762 0.0630737 0.0631712 0.0632702 0.063369 0.0634678 0.0635666
0.0636654 0.0638653 0.0640652 0.0642653 0.0644656 0.0646661 0.0647645 0.0648631 0.0649618 0.0650606
0.0651595 0.0652591 0.0653588 0.0654584 0.065558 0.0656575 0.0658562 0.0660551 0.066254 0.066453
0.0666518 0.0668509 0.0670496 0.0672484 0.0674472 0.0676462 0.0678462 0.0680451 0.0682441 0.0684432
0.0686424 0.068844 0.0690445 0.069245 0.0694455 0.069646 0.0698477 0.0700492 0.0702508 0.0704524
0.0706541 0.0708554 0.0710569 0.0712587 0.0714604 0.0716619 0.0718627 0.0720636 0.0722646 0.0724657
0.0726667 0.072779 0.0728912 0.0730036 0.0731161 0.0732296 0.0733188 0.0734079 0.0734972 0.0735867
0.0736763 0.073879 0.0740822 0.0742858 0.0744895 0.0746928 0.0748951 0.0750985 0.0753021 0.0755058
0.0757095 0.0759109 0.0761141 0.0763177 0.0765213 0.0767244 0.0767711 0.0768181 0.0768651 0.076912
0.0769594 0.0771124 0.077265 0.0774176 0.0775702 0.0777228 0.0779257 0.078128 0.0783306 0.0785334
0.0787364 0.0789447 0.0791522 0.0793596 0.079567 0.0797744 0.0799963 0.0802169 0.0804378 0.080659
0.0808806 0.0811028 0.0813243 0.0815461 0.0817683 0.0819909 0.082197 0.0824029 0.0826094 0.0828165
0.0830243 0.0832292 0.0834343 0.0836398 0.0838456 0.0840516 0.0842582 0.0844649 0.0846719 0.0848793
0.0850869 0.0852208 0.0853547 0.0854886 0.0856226 0.0857695 0.0858411 0.0859126 0.0859841 0.0860557
0.0861272 0.0865396 0.0869537 0.0873706 0.0877899 0.0882111 0.0886367 0.0890636 0.0894902 0.0899165
0.0903427 0.0907689 0.0911962 0.0916233 0.0920502 0.0924768 0.0929033 0.0933307 0.0937578 0.0941847
0.0946115 0.095038 0.0954656 0.0958931 0.0963205 0.0967477 0.0971747 0.0976024 0.0980301 0.0984576
0.098885 0.0993119 0.0997398 0.100168 0.100595 0.101023 0.10145 0.101878 0.102306 0.102733
0.103161 0.103588 0.104016 0.104444 0.104871 0.105299 0.105726 0.106154 0.106581 0.107009
0.107437 0.107883 0.108331 0.108778 0.109226 0.109673 0.110087 0.110503 0.110918 0.111332
0.111747 0.112168 0.11259 0.113011 0.113432 0.113854 0.11428 0.114706 0.115133 0.11556
0.115986 0.116413 0.11684 0.117267 0.117695 0.118122 0.118494 0.118866 0.119239 0.119611
0.119979 0.120034 0.12009 0.120145 0.120201 0.120256 0.120683 0.12111 0.121537 0.121965
0.122392 0.122819 0.123246 0.123673 0.1241 0.124527 0.124954 0.125381 0.125808 0.126235
0.126662 0.127088 0.127515 0.127942 0.128369 0.128795 0.129222 0.129649 0.130075 0.130502
0.130929 0.131355 0.131782 0.132209 0.132635 0.133062 0.133471 0.133881 0.134291 0.1347
0.13512 0.135135 0.13515 0.135165 0.135179 0.135194 0.135621 0.136047 0.136473 0.1369
0.137326 0.137753 0.138179 0.138605 0.139031 0.139458 0.139884 0.14031 0.140736 0.141163
0.141589 0.142015 0.142441 0.142867 0.143293 0.143719 0.144145 0.144571 0.144997 0.145423
0.145849 0.146275 0.146701 0.147127 0.147553 0.147978 0.148405 0.148831 0.149256 0.149682
0.150108 0.150534 0.150959 0.151385 0.151811 0.152236 0.152662 0.153088 0.153513 0.153939
0.154364 0.15479 0.155216 0.155641 0.156066 0.156492 0.156918 0.157343 0.157769 0.158194
0.158619 0.159045 0.15947 0.159895 0.160321 0.160746 0.161172 0.161597 0.162022 0.162447
0.162872 0.163298 0.163723 0.164148 0.164573 0.164998 0.165424 0.165849 0.166274 0.166699
0.167124 0.167549 0.167974 0.168399 0.168824 0.169248 0.169674 0.170099 0.170524 0.170949
0.171373 0.171799 0.172224 0.172648 0.173073 0.173497 0.173923 0.174348 0.174772 0.175197
0.175621 0.176047 0.176471 0.176896 0.17732 0.177745 0.17817 0.178595 0.179019 0.179444
0.179868 0.180293 0.180718 0.181142 0.181566 0.181991 0.182416 0.18284 0.183265 0.183689
0.184113 0.184538 0.184963 0.185387 0.185811 0.186235 0.18666 0.187085 0.187509 0.187933
0.188357 0.188782 0.189206 0.18963 0.190054 0.190478 0.190903 0.191327 0.191752 0.192176
0.1926 0.193025 0.193449 0.193873 0.194298 0.194722 0.195147 0.195571 0.195996 0.19642
0.196844 0.197269 0.197694 0.198118 0.198543 0.198967 0.199392 0.199817 0.200242 0.200666
0.201091 0.201516 0.20194 0.202365 0.20279 0.203214 0.203432 0.20365 0.203868 0.204086
0.204303 0.20451 0.204717 0.204924 0.205131 0.205338 0.205763 0.206187 0.206612 0.207036
0.20746 0.207885 0.208309 0.208734 0.209158 0.209582 0.210006 0.21043 0.210854 0.211278
0.211702 0.212127 0.21255 0.212974 0.213398 0.213821 0.214246 0.214669 0.215093 0.215516
0.215939 0.216364 0.216787 0.21721 0.217633 0.218056 0.21848 0.218903 0.219326 0.219749
0.220172 0.220596 0.221019 0.221442 0.221865 0.222287 0.222711 0.223134 0.223556 0.223979
0.224401 0.224825 0.225247 0.22567 0.226092 0.226514 0.226938 0.22736 0.227782 0.228204
0.228626 0.22905 0.229472 0.229894 0.230315 0.230737 0.231161 0.231582 0.232004 0.232425
0.232847 0.233271 0.233692 0.234114 0.234535 0.234956 0.23538 0.235801 0.236222 0.236644
0.237065 0.237488 0.23791 0.238331 0.238752 0.239173 0.239596 0.240017 0.240438 0.24086
0.241281 0.241704 0.242125 0.242546 0.242967 0.243388 0.243811 0.244231 0.244652 0.245073
0.245494 0.245917 0.246338 0.246759 0.247179 0.2476 0.248023 0.248443 0.248864 0.249285
0.249705 0.250128 0.250549 0.250969 0.25139 0.25181 0.252232 0.252653 0.253073 0.253494
0.253914 0.254337 0.254757 0.255177 0.255598 0.256018 0.25644 0.25686 0.25728 0.257701
0.258121 0.258543 0.258963 0.259383 0.259803 0.260223 0.260645 0.261065 0.261485 0.261905
0.262325 0.262747 0.263167 0.263587 0.264006 0.264426 0.264848 0.265268 0.265687 0.266107
0.266527 0.266948 0.267368 0.267788 0.268207 0.268627 0.269048 0.269468 0.269887 0.270307
0.270726 0.271148 0.271567 0.271987 0.272406 0.272825 0.273246 0.273666 0.274085 0.274504
0.274924 0.275345 0.275764 0.276183 0.276602 0.277022 0.277442 0.277861 0.27828 0.2787
0.279119 0.279539 0.279958 0.280377 0.280796 0.281215 0.281636 0.282055 0.282474 0.282892
0.283311 0.283732 0.284151 0.284569 0.284988 0.285407 0.285827 0.286246 0.286665 0.287083
0.287502 0.287922 0.288341 0.288759 0.289178 0.289597 0.290016 0.290435 0.290854 0.291272
0.291691 0.29211 0.292529 0.292947 0.293366 0.293784 0.294204 0.294622 0.295041 0.295459
0.295877 0.296297 0.296715 0.297133 0.297552 0.29797 0.298389 0.298807 0.299226 0.299644
0.300062 0.300481 0.3009 0.301318 0.301736 0.302154 0.302573 0.302991 0.303409 0.303827
0.304245 0.304664 0.305082 0.3055 0.305918 0.306336 0.306755 0.307173 0.307591 0.308009
0.308426 0.308845 0.309263 0.309681 0.310099 0.310517 0.310935 0.311353 0.311771 0.312188
0.312606 0.313024 0.313442 0.31386 0.314278 0.314695 0.315113 0.315531 0.315949 0.316367
0.316784 0.317202 0.31762 0.318038 0.318455 0.318873 0.319291 0.319708 0.320126 0.320543
0.320961 0.321379 0.321796 0.322214 0.322631 0.323049 0.323466 0.323884 0.324301 0.324718
0.325136 0.325553 0.325971 0.326388 0.326805 0.327223 0.32764 0.328057 0.328475 0.328892
0.329309 0.329726 0.330144 0.330561 0.330978 0.331395 0.331812 0.33223 0.332647 0.333064
0.333481 0.333898 0.334315 0.334733 0.33515 0.335567 0.335984 0.336401 0.336818 0.337235
0.337652 0.338069 0.338486 0.338903 0.33932 0.339737 0.340153 0.34057 0.340987 0.341404
0.341821 0.342238 0.342654 0.343071 0.343488 0.343905 0.344321 0.344738 0.345155 0.345572
0.345989 0.346405 0.346822 0.347239 0.347655 0.348072 0.348488 0.348905 0.349322 0.349738
0.350155 0.350571 0.350988 0.351404 0.351821 0.352237 0.352653 0.35307 0.353487 0.353903
0.35432 0.354736 0.355152 0.355569 0.355985 0.356401 0.356817 0.357234 0.35765 0.358067
0.358483 0.358899 0.359315 0.359731 0.360148 0.360564 0.36098 0.361396 0.361812 0.362229
0.362645 0.36306 0.363476 0.363893 0.364309 0.364725 0.36514 0.365557 0.365973 0.366389
0.366805 0.36722 0.367636 0.368053 0.368469 0.368885 0.3693 0.369716 0.370132 0.370548
0.370964 0.371379 0.371795 0.372211 0.372627 0.373043 0.373458 0.373873 0.374289 0.374705
0.375121 0.375536 0.375951 0.376367 0.376783 0.377199 0.377614 0.378029 0.378445 0.378861
0.379276 0.379691 0.380107 0.380522 0.380938 0.381354 0.381768 0.382184 0.382599 0.383015
0.38343 0.383845 0.38426 0.384676 0.385091 0.385507 0.385921 0.386336 0.386752 0.387167
0.387582 0.387997 0.388412 0.388827 0.389243 0.389658 0.390072 0.390487 0.390902 0.391318
0.391733 0.392147 0.392562 0.392977 0.393392 0.393807 0.394221 0.394636 0.395051 0.395467
0.395881 0.396295 0.39671 0.397125 0.39754 0.397955 0.398369 0.398783 0.399198 0.399613
0.400028 0.400442 0.400856 0.401271 0.401686 0.402101 0.402514 0.402929 0.403344 0.403758
0.404173 0.404586 0.405001 0.405415 0.40583 0.406244 0.406658 0.407072 0.407487 0.407901