# vtk DataFile Version 2.0
tracks
ASCII
DATASET POLYDATA
POINTS 25045 float
-1.001 -0.05 0.0011 -0.99549 -0.0500011 0.00110424 -0.989981 -0.0500023 0.00110854 -0.984471 -0.0500035
0.0011129 -0.978962 -0.0500047 0.00111731 -0.973452 -0.0500059 0.00112176 -0.966891 -0.0500073 0.00112707
-0.960329 -0.0500087 0.0011324 -0.953767 -0.0500102 0.00113781 -0.947206 -0.0500118 0.00114328 -0.940644
-0.0500134 0.00114882 -0.934083 -0.0500148 0.00115448 -0.927521 -0.0500164 0.00116028 -0.920959 -0.0500181
0.00116617 -0.914397 -0.0500198 0.00117216 -0.907836 -0.0500215 0.00117824 -0.901275 -0.0500233 0.00118437
-0.894715 -0.0500251 0.00119049 -0.888154 -0.0500269 0.00119673 -0.881594 -0.0500289 0.00120306 -0.875033
-0.0500309 0.00120949 -0.868472 -0.0500328 0.0012161 -0.861912 -0.0500349 0.00122286 -0.855351 -0.0500371
0.00122972 -0.84879 -0.0500393 0.00123671 -0.84223 -0.0500417 0.00124381 -0.835672 -0.050044 0.001251
-0.829114 -0.0500464 0.00125814 -0.822556 -0.0500489 0.0012654 -0.815998 -0.0500516 0.0012728 -0.80944
-0.0500544 0.0012803 -0.802897 -0.0500571 0.00128805 -0.796353 -0.05006 0.00129594 -0.78981 -0.050063
0.00130396 -0.783267 -0.0500662 0.00131213 -0.776724 -0.0500695 0.00132044 -0.77029 -0.0500727 0.00132875
-0.763856 -0.0500761 0.00133692 -0.757423 -0.0500797 0.00134523 -0.750989 -0.0500834 0.00135369 -0.744555
-0.0500874 0.0013623 -0.737905 -0.0500914 0.00137156 -0.731255 -0.0500957 0.00138097 -0.724606 -0.0501002
0.00139057 -0.717956 -0.050105 0.00140035 -0.711306 -0.05011 0.00141033 -0.704715 -0.050115 0.00142041
-0.698124 -0.0501204 0.00143031 -0.691533 -0.050126 0.00144042 -0.684942 -0.050132 0.00145074 -0.678351
-0.0501383 0.00146128 -0.671806 -0.0501445 0.0014722 -0.665261 -0.050151 0.00148321 -0.658716 -0.050158
0.00149444 -0.65217 -0.0501654 0.00150587 -0.645625 -0.0501732 0.00151752 -0.639089 -0.0501812 0.00152945
-0.632552 -0.0501896 0.00154096 -0.626016 -0.0501987 0.00155275 -0.619479 -0.0502084 0.00156481 -0.612943
-0.0502186 0.00157716 -0.606414 -0.050229 0.00159017 -0.599885 -0.0502398 0.00160308 -0.593356 -0.0502514
0.00161624 -0.586827 -0.050264 0.00162966 -0.580297 -0.0502773 0.00164333 -0.573782 -0.050291 0.00165745
-0.567267 -0.0503058 0.00167045 -0.560752 -0.0503218 0.00168374 -0.554237 -0.050339 0.00169732 -0.547722
-0.0503576 0.00171118 -0.541221 -0.0503763 0.00172614 -0.53472 -0.0503961 0.00174037 -0.52822 -0.0504177
0.00175482 -0.521719 -0.0504414 0.00176949 -0.515218 -0.0504669 0.00178439 -0.508738 -0.0504929 0.00179996
-0.502257 -0.0505221 0.00181179 -0.495777 -0.0505544 0.00182373 -0.489296 -0.0505898 0.00183579 -0.482815
-0.0506284 0.00184795 -0.476355 -0.0506673 0.00186313 -0.469895 -0.0507105 0.00187598 -0.463435 -0.0507587
0.0018892 -0.456974 -0.0508121 0.00190278 -0.450514 -0.0508705 0.00191675 -0.444098 -0.0509286 0.00193348
-0.437682 -0.050996 0.00194737 -0.431266 -0.051075 0.00196123 -0.424851 -0.051164 0.00197513 -0.418434
-0.0512631 0.00198907 -0.415232 -0.0513192 0.0019958 -0.41203 -0.0513802 0.0020018 -0.408828 -0.0514463
0.00200758 -0.405627 -0.051518 0.00201318 -0.402424 -0.0515953 0.00201925 -0.399207 -0.051678 0.00202687
-0.39599 -0.0517752 0.00203309 -0.392773 -0.0518829 0.00203894 -0.389557 -0.0519985 0.00204505 -0.386336
-0.0521199 0.0020513 -0.38315 -0.052242 0.00205732 -0.379965 -0.0523855 0.00206471 -0.376782 -0.0525489
0.00207262 -0.373599 -0.0527312 0.00208053 -0.370405 -0.0529312 0.00208943 -0.367157 -0.0531488 0.00210131
-0.363913 -0.0534126 0.00211213 -0.360669 -0.0536883 0.00212268 -0.357426 -0.0539659 0.00213319 -0.35416
-0.0542484 0.00214316 -0.350768 -0.054547 0.0021481 -0.347373 -0.0548184 0.00215582 -0.343978 -0.0550728
0.00216381 -0.340581 -0.0553128 0.00217148 -0.337202 -0.0555443 0.00217903 -0.333571 -0.0558087 0.00218788
-0.329935 -0.0559809 0.00219167 -0.326298 -0.0561158 0.00219416 -0.32266 -0.0562316 0.00219653 -0.31904
-0.0563348 0.00219955 -0.315547 -0.0564381 0.00220672 -0.312052 -0.0565167 0.00220723 -0.308558 -0.0565818
0.00220618 -0.305063 -0.0566388 0.00220485 -0.30157 -0.0566939 0.00220441 -0.298204 -0.0567634 0.00220827
-0.294838 -0.0567999 0.00220647 -0.291471 -0.0568255 0.00220337 -0.288105 -0.0568473 0.00220043 -0.28474
-0.0568683 0.00219927 -0.281419 -0.0568972 0.00220505 -0.278098 -0.0569081 0.00220333 -0.274777 -0.0569111
0.00219978 -0.271456 -0.0569094 0.0021961 -0.268135 -0.0569086 0.00219343 -0.264847 -0.0569272 0.00219556
-0.261559 -0.0569216 0.00219267 -0.258271 -0.0569105 0.00218861 -0.254983 -0.0568996 0.00218456 -0.251694
-0.0568916 0.00218204 -0.248411 -0.0568954 0.00218611 -0.245129 -0.056884 0.0021834 -0.241846 -0.0568666
0.00217885 -0.238563 -0.0568459 0.00217399 -0.23528 -0.0568274 0.00216995 -0.232 -0.0568286 0.00217018
-0.228721 -0.056809 0.00216579 -0.225441 -0.056786 0.00216023 -0.222162 -0.0567653 0.00215468 -0.218882
-0.0567515 0.00215025 -0.2156 -0.0567586 0.00215022 -0.212318 -0.0567446 0.00214567 -0.209036 -0.0567249
0.00213988 -0.205755 -0.0567049 0.00213397 -0.202472 -0.0566881 0.0021298 -0.199201 -0.0566847 0.00213284
-0.195929 -0.0566683 0.0021285 -0.192658 -0.0566491 0.00212231 -0.189386 -0.0566304 0.00211614 -0.186115
-0.0566159 0.00211211 -0.182832 -0.0566149 0.00211627 -0.179549 -0.0566009 0.00211156 -0.176266 -0.0565829
0.00210432 -0.172984 -0.0565643 0.00209683 -0.169701 -0.0565498 0.00209042 -0.166404 -0.0565539 0.00208913
-0.163107 -0.0565402 0.00208238 -0.159809 -0.0565235 0.00207444 -0.156512 -0.0565083 0.00206648 -0.153214
-0.0564973 0.00206045 -0.149939 -0.0564995 0.00206282 -0.146664 -0.0564901 0.0020562 -0.143389 -0.0564791
0.00204744 -0.140114 -0.0564692 0.0020383 -0.136839 -0.0564625 0.00203014 -0.13359 -0.0564682 0.00202868
-0.130341 -0.0564649 0.00201921 -0.127092 -0.0564616 0.00200818 -0.123843 -0.0564598 0.00199669 -0.120594
-0.0564604 0.00198537 -0.117313 -0.0564717 0.00197953 -0.114031 -0.0564777 0.00196708 -0.11075 -0.0564862
0.0019545 -0.107468 -0.0564976 0.00194233 -0.104187 -0.0565119 0.00193056 -0.10092 -0.0565366 0.00192507
-0.0976536 -0.0565656 0.00191129 -0.0943869 -0.0565973 0.00189496 -0.0911203 -0.0566315 0.00188007 -0.0878538
-0.0566697 0.00186333 -0.0862118 -0.056692 0.00185497 -0.0845698 -0.0567138 0.00184453 -0.0829278 -0.0567357
0.00183286 -0.0812859 -0.0567583 0.00182095 -0.079644 -0.0567829 0.00181021 -0.0779946 -0.0568107 0.00180174
-0.0763452 -0.0568389 0.00179217 -0.0746958 -0.0568679 0.00178208 -0.0730464 -0.0568985 0.00177248 -0.071397
-0.0569313 0.00176394 -0.0697381 -0.056967 0.00175679 -0.0680792 -0.0570038 0.00174878 -0.0664204 -0.0570418
0.00174015 -0.0647616 -0.0570815 0.00173136 -0.0631026 -0.0571241 0.00172349 -0.0614557 -0.05717 0.00171709
-0.0598089 -0.0572163 0.00170924 -0.0581621 -0.0572633 0.0017004 -0.0565153 -0.057312 0.0016915 -0.0548683
-0.0573636 0.00168268 -0.0532233 -0.0574185 0.00167403 -0.0515783 -0.0574753 0.0016642 -0.0499334 -0.057534
0.00165337 -0.0482886 -0.0575948 0.00164198 -0.0466431 -0.0576605 0.00163217 -0.0450071 -0.0577317 0.00162465
-0.0433711 -0.0578007 0.00161411 -0.041735 -0.0578682 0.00160126 -0.0400989 -0.0579371 0.00158818 -0.0384631
-0.0580117 0.00157531 -0.0368461 -0.0580923 0.00156291 -0.035229 -0.0581709 0.00154906 -0.0336119 -0.0582479
0.00153385 -0.0319948 -0.058325 0.00151768 -0.030378 -0.0584119 0.00150406 -0.028778 -0.0585093 0.00149372
-0.0271771 -0.058589 0.00147992 -0.0255754 -0.0586535 0.00146325 -0.0239737 -0.0587155 0.00144642 -0.022378
-0.0587946 0.00143042 -0.0208127 -0.0588931 0.00141569 -0.0192458 -0.0589639 0.00140059 -0.0176783 -0.0590155
0.00138504 -0.0161106 -0.0590641 0.00136883 -0.0145609 -0.0591195 0.00135258 -0.01279 -0.0592068 0.00133416
-0.0110177 -0.0592551 0.00131606 -0.00924498 -0.059289 0.00129832 -0.00747221 -0.0593187 0.00128102 -0.00570676
-0.0593457 0.00126432 -0.00397232 -0.0593932 0.00124985 -0.0022373 -0.0594087 0.00123419 -0.000502261 -0.0594197
0.00121803 0.0012328 -0.0594261 0.00120136 0.00296658 -0.059428 0.00118449 0.00465496 -0.0594472 0.00116616
0.00634347 -0.0594412 0.00114952 0.00803196 -0.0594336 0.00113298 0.00972045 -0.059424 0.00111666 0.0114086
-0.0594124 0.00110056 0.0131396 -0.0594231 0.0010859 0.0148704 -0.0594077 0.0010683 0.0166013 -0.0593888
0.00104981 0.0183321 -0.059367 0.00103051 0.0200672 -0.0593479 0.00101042 0.0216705 -0.0593489 0.000990728
0.0232737 -0.0593327 0.000970624 0.0248767 -0.0593109 0.000950367 0.0264798 -0.0592895 0.000930281 0.0280852
-0.0592733 0.000910663 0.0296714 -0.059271 0.000892317 0.0312576 -0.0592545 0.000872611 0.0328438 -0.0592323
0.000852126 0.0344298 -0.059209 0.000831176 0.0360169 -0.0591885 0.000809618 0.0376212 -0.0591784 0.000786809
0.0392253 -0.0591584 0.000764904 0.0408294 -0.059136 0.000743413 0.0424336 -0.0591143 0.000722408 0.044038
-0.0590959 0.000702002 0.0456567 -0.0590867 0.000682343 0.0472754 -0.0590675 0.000661707 0.0488939 -0.0590448
0.000640536 0.0505125 -0.0590207 0.000618963 0.0521316 -0.0589967 0.000596926 0.053758 -0.058979 0.000573899
0.0553843 -0.0589524 0.000551665 0.0570107 -0.0589241 0.000529733 0.058637 -0.0588958 0.000508193 0.0602637
-0.0588686 0.000487016 0.0618925 -0.0588494 0.000466064 0.0635211 -0.0588215 0.000444628 0.0651497 -0.058791
0.000422788 0.0667782 -0.058759 0.000400556 0.0684075 -0.0587262 0.000377819 0.0700329 -0.0586988 0.000353457
0.0716583 -0.0586647 0.000331034 0.0732837 -0.0586306 0.000308919 0.0749091 -0.0585967 0.000287161 0.0765349
-0.0585633 0.000265691 0.0781579 -0.0585356 0.000242488 0.0797808 -0.0585014 0.000220976 0.0814037 -0.0584656
0.000199175 0.0830266 -0.0584284 0.000177039 0.0846501 -0.0583901 0.000154733 0.086286 -0.0583557 0.000130346
0.0879218 -0.0583152 0.000110385 0.0895576 -0.058276 9.09598e-05 0.0911935 -0.0582386 7.21561e-05 0.0928298
-0.0582034 5.38057e-05 0.0961334 -0.0581478 1.23957e-05 0.0994369 -0.0580916 -3.1348e-05 0.102741 -0.0580369
-7.7569e-05 0.106044 -0.0579847 -0.000123445 0.109348 -0.0579338 -0.000169212 0.112674 -0.057883 -0.000212915
0.116001 -0.057836 -0.000256137 0.119328 -0.05779 -0.000298434 0.122655 -0.0577445 -0.000343788 0.125982
[...]
POINT_DATA 25045
FIELD attributes 4
age 1 25045 float
0 0.000332661 0.000665333 0.000998014 0.00133071 0.00166341 0.00205965 0.00245591 0.00285219 0.00324849 0.0036448
0.00404114 0.00443751 0.0048339 0.0052303 0.00562673 0.0060231 0.00641949 0.00681591 0.00721236 0.00760882
0.00800532 0.00840186 0.00879842 0.009195 0.00959162 0.00998809 0.0103846 0.0107811 0.0111777 0.0115743
0.0119701 0.0123658 0.0127617 0.0131575 0.0135534 0.0139427 0.0143321 0.0147215 0.0151109 0.0155004
0.015903 0.0163057 0.0167084 0.0171112 0.017514 0.0179133 0.0183127 0.0187122 0.0191117 0.0195113
0.0199082 0.0203051 0.0207022 0.0210993 0.0214965 0.0218933 0.0222902 0.0226871 0.0230842 0.0234814
0.0238782 0.0242752 0.0246723 0.0250695 0.0254669 0.0258635 0.0262603 0.0266573 0.0270545 0.0274518
0.0278483 0.0282453 0.0286424 0.0290398 0.0294374 0.0298339 0.030231 0.0306283 0.031026 0.0314239
0.0318207 0.0322185 0.0326167 0.0330153 0.0334143 0.0338107 0.0342087 0.0346074 0.0350066 0.0354064
0.0356065 0.0358068 0.0360073 0.0362081 0.0364092 0.0366117 0.0368136 0.0370151 0.0372164 0.0374182
0.0376187 0.0378178 0.0380162 0.0382142 0.0384133 0.0386177 0.038818 0.0390169 0.0392152 0.0394147
0.0396241 0.0398304 0.0400359 0.0402411 0.0404443 0.0406601 0.0408779 0.0410962 0.0413143 0.0415315
0.0417435 0.0419531 0.0421624 0.0423716 0.0425812 0.0427854 0.0429874 0.0431889 0.0433904 0.0435926
0.0437951 0.0439947 0.0441937 0.0443928 0.0445926 0.0447931 0.0449911 0.0451885 0.0453859 0.0455841
0.0457851 0.045983 0.0461804 0.0463778 0.0465761 0.0467772 0.0469754 0.0471728 0.0473703 0.0475684
0.0477697 0.0479682 0.0481659 0.0483637 0.0485624 0.0487636 0.0489618 0.0491592 0.0493567 0.049555
0.0497571 0.0499562 0.0501546 0.0503531 0.0505525 0.0507558 0.0509562 0.0511559 0.0513555 0.0515559
0.0517579 0.0519571 0.0521558 0.0523545 0.0525539 0.0527545 0.0529525 0.0531501 0.053348 0.0535462
0.0537495 0.0539501 0.0541507 0.0543516 0.0545526 0.0547534 0.054954 0.0551546 0.0553557 0.0555566
0.0556578 0.0557589 0.05586 0.0559612 0.0560625 0.0561646 0.0562664 0.0563682 0.0564699 0.0565716
0.0566741 0.0567764 0.0568788 0.0569812 0.0570837 0.0571857 0.0572875 0.0573891 0.0574907 0.0575923
0.0576938 0.0577952 0.0578965 0.0579978 0.0580994 0.0582006 0.0583014 0.0584021 0.0585026 0.0586031
0.0587023 0.0588015 0.0589007 0.0589998 0.0590989 0.0591969 0.0592948 0.0593928 0.0594906 0.0595875
0.059682 0.0597769 0.059872 0.0599669 0.0600606 0.0601674 0.0602743 0.0603812 0.0604879 0.0605941
0.0606982 0.0608025 0.0609068 0.061011 0.0611152 0.061217 0.0613183 0.0614195 0.0615205 0.0616215
0.0617252 0.0618284 0.0619314 0.0620344 0.0621378 0.062234 0.0623294 0.0624244 0.0625194 0.0626147
0.0627096 0.0628038 0.0628977 0.0629918 0.0630862 0.0631827 0.0632782 0.0633735 0.0634688 0.0635644
0.0636616 0.0637581 0.0638546 0.0639511 0.0640479 0.0641461 0.0642434 0.0643405 0.0644377 0.0645352
0.0646337 0.0647315 0.0648294 0.0649274 0.0650256 0.0651247 0.0652229 0.0653211 0.0654194 0.0655178
0.0656172 0.0657157 0.0658143 0.0659129 0.0660117 0.0661124 0.0662119 0.0663114 0.066411 0.0665108
0.0667146 0.0669185 0.0671227 0.0673269 0.0675317 0.067738 0.0679445 0.0681514 0.0683587 0.0685664
0.0687831 0.0689863 0.0691895 0.0693929 0.0695965 0.0698093 0.0700156 0.0702215 0.0704275 0.0706347
0.0708549 0.0710626 0.071269 0.0714756 0.0716835 0.0718975 0.0721051 0.0723121 0.0725193 0.0727294
0.0729509 0.0731604 0.073367 0.0735734 0.0737827 0.0740042 0.0742143 0.0744214 0.0746286 0.0748392
0.0750618 0.0752731 0.0754811 0.0756889 0.0758988 0.0761153 0.0763253 0.0765331 0.0767412 0.0769522
0.077171 0.077383 0.0775919 0.0778007 0.078012 0.0782313 0.078444 0.078654 0.0788642 0.0790787
0.0793081 0.0795282 0.0797436 0.079959 0.0801777 0.0804124 0.0806407 0.0808653 0.0810904 0.0813222
0.0815694 0.0818055 0.0820351 0.0822648 0.0824986 0.0827317 0.0829589 0.0831837 0.0834095 0.0836407
0.0838636 0.0840786 0.0842894 0.0845005 0.0847133 0.0849324 0.0851466 0.0853594 0.0855726 0.0857881
0.0860103 0.0862246 0.0864362 0.0866482 0.0868623 0.0873019 0.0877397 0.0881809 0.0886242 0.0890704
0.0895069 0.0899583 0.0904098 0.0908611 0.0913122 0.0917509 0.0922028 0.0926551 0.0931073 0.0935589
0.0939958 0.0944476 0.0949015 0.0953553 0.0958077 0.0962487 0.0967015 0.0971558 0.09761 0.0980616
0.0984984 0.0989498 0.0994039 0.099858 0.10031 0.100751 0.101203 0.101657 0.102111 0.102563
0.103002 0.103454 0.103908 0.104362 0.104813 0.105259 0.105716 0.106175 0.106635 0.107091
0.107531 0.107985 0.108444 0.108902 0.109357 0.10979 0.110232 0.110678 0.111124 0.111565
0.111998 0.112444 0.112894 0.113345 0.113792 0.114231 0.11468 0.115132 0.115583 0.116031
0.116466 0.116913 0.117362 0.11781 0.118259 0.118697 0.119145 0.119591 0.120037 0.120483
0.120917 0.121361 0.121803 0.122244 0.122685 0.123121 0.12356 0.123997 0.124434 0.12487
0.125192 0.125514 0.125836 0.126158 0.126476 0.127024 0.127574 0.128122 0.128669 0.129216
0.130083 0.13095 0.131817 0.132684 0.13355 0.134413 0.135278 0.136144 0.13701 0.137874
0.138733 0.139597 0.140461 0.141326 0.142189 0.143047 0.14391 0.144774 0.145638 0.1465
0.147364 0.148226 0.149089 0.149951 0.150813 0.151676 0.152537 0.1534 0.154262 0.155119
0.155979 0.156836 0.157698 0.15856 0.159419 0.160273 0.161132 0.161993 0.162854 0.163714
0.164575 0.165435 0.166296 0.167157 0.168014 0.168866 0.169724 0.170584 0.171444 0.172302
0.17316 0.174018 0.174878 0.175737 0.176594 0.177444 0.1783 0.17916 0.180019 0.180877
0.181736 0.182594 0.183453 0.184311 0.185166 0.186016 0.186871 0.187729 0.188587 0.189445
0.190302 0.191159 0.192017 0.192875 0.193732 0.194589 0.195445 0.196302 0.197159 0.198015
0.198871 0.199727 0.200584 0.20144 0.202293 0.203141 0.203994 0.20485 0.205706 0.20656
0.207415 0.208269 0.209125 0.20998 0.210832 0.211679 0.212531 0.213386 0.214241 0.215094
0.215947 0.2168 0.217654 0.218509 0.21936 0.220207 0.221058 0.221912 0.222765 0.223617
0.224469 0.225321 0.226174 0.227027 0.227878 0.228724 0.229574 0.230427 0.23128 0.232131
0.232981 0.233833 0.234684 0.235537 0.236387 0.237233 0.238082 0.238934 0.239785 0.240636
0.241485 0.242336 0.243186 0.244038 0.244888 0.245737 0.246587 0.247438 0.248289 0.249138
0.249987 0.250836 0.251686 0.252537 0.253386 0.254234 0.255083 0.255934 0.256784 0.257632
0.25848 0.259329 0.260178 0.261028 0.261876 0.262721 0.263569 0.264419 0.265267 0.266116
0.266962 0.26781 0.268659 0.269508 0.270356 0.2712 0.272047 0.272897 0.273745 0.274592
0.275438 0.276285 0.277133 0.277982 0.278829 0.279673 0.28052 0.281368 0.282216 0.283063
0.283907 0.284754 0.285601 0.28645 0.287296 0.28814 0.288986 0.289834 0.290681 0.291527
0.292371 0.293217 0.294064 0.294912 0.295758 0.296601 0.297447 0.298295 0.299141 0.299986
0.30083 0.301675 0.302522 0.303369 0.304214 0.305057 0.305902 0.306749 0.307595 0.30844
0.309283 0.310128 0.310974 0.31182 0.312665 0.313508 0.314352 0.315199 0.316044 0.316889
0.317731 0.318575 0.319421 0.320267 0.321111 0.321954 0.322798 0.323644 0.324489 0.325333
0.326175 0.327019 0.327864 0.328709 0.329553 0.330396 0.33124 0.332085 0.33293 0.333773
0.334614 0.335458 0.336302 0.337147 0.337991 0.338833 0.339677 0.340522 0.341366 0.342209
0.343049 0.343892 0.344736 0.345581 0.346424 0.347266 0.348109 0.348954 0.349798 0.35064
0.35148 0.352323 0.353166 0.354011 0.354854 0.355695 0.356538 0.357382 0.358225 0.359068
0.359907 0.360749 0.361592 0.362436 0.363279 0.36412 0.364963 0.365806 0.366649 0.367491
0.36833 0.369172 0.370014 0.370858 0.3717 0.372541 0.373383 0.374227 0.375069 0.37591
0.376749 0.37759 0.378433 0.379276 0.380118 0.380958 0.3818 0.382643 0.383485 0.384326
0.385164 0.386005 0.386847 0.38769 0.388532 0.389372 0.390214 0.391056 0.391898 0.392739
0.393576 0.394417 0.395259 0.396101 0.396942 0.397783 0.398624 0.399466 0.400307 0.401148
0.401985 0.402825 0.403667 0.404509 0.40535 0.40619 0.40703 0.407872 0.408713 0.409553
0.41039 0.41123 0.412071 0.412913 0.413753 0.414593 0.415434 0.416275 0.417116 0.417957
0.418796 0.419637 0.420477 0.421319 0.422159 0.422998 0.423839 0.42468 0.42552 0.42636
0.427196 0.428035 0.428875 0.429716 0.430556 0.431396 0.432236 0.433076 0.433917 0.434756
0.435591 0.43643 0.43727 0.438111 0.438951 0.43979 0.440629 0.44147 0.44231 0.443149
0.443984 0.444822 0.445662 0.446503 0.447342 0.448181 0.44902 0.44986 0.4507 0.451538
0.452373 0.453212 0.454051 0.454891 0.45573 0.456569 0.457408 0.458248 0.459087 0.459925
0.46076 0.461598 0.462437 0.463277 0.464116 0.464954 0.465793 0.466632 0.467471 0.468309
0.469143 0.469981 0.47082 0.471659 0.472498 0.473336 0.474175 0.475014 0.475852 0.47669
0.477524 0.478361 0.4792 0.480039 0.480877 0.481715 0.482553 0.483392 0.484231 0.485068
0.485902 0.486739 0.487577 0.488416 0.489254 0.490092 0.49093 0.491768 0.492606 0.493443
0.494276 0.495114 0.495952 0.49679 0.497628 0.498465 0.499303 0.500141 0.500979 0.501816
0.502649 0.503485 0.504323 0.505161 0.505999 0.506836 0.507673 0.508511 0.509349 0.510186
0.511018 0.511855 0.512692 0.51353 0.514367 0 0.000332686 0.000665382 0.000998088 0.0013308
0.00166353 0.00176261 0.00186169 0.00196077 0.00205985 0.00215889 0.00245606 0.00275324 0.00305044 0.00334764
0.00364486 0.00404115 0.00443746 0.0048338 0.00523015 0.00562653 0.00602289 0.00641928 0.00681569 0.00721212
0.00760858 0.00800488 0.0084012 0.00879755 0.00919393 0.00959033 0.00998464 0.010379 0.0107733 0.0111677
0.0115622 0.0119497 0.0123373 0.012725 0.0131127 0.0135004 0.0138956 0.0142908 0.0146861 0.0150815
0.0154769 0.0158865 0.0162962 0.0167059 0.0171157 0.0175255 0.0179223 0.0183192 0.0187161 0.0191131
0.0195101 0.0199069 0.0203038 0.0207008 0.0210978 0.021495 0.0218918 0.0222887 0.0226857 0.0230828
0.02348 0.0238767 0.0242737 0.0246707 0.0250679 0.0254651 0.0258618 0.0262587 0.0266557 0.0270529
0.0274503 0.0278468 0.0282438 0.0286409 0.0290382 0.0294358 0.0298322 0.0302292 0.0306265 0.0310241
0.0314219 0.0318184 0.0322158 0.0326136 0.0330117 0.0334102 0.0338061 0.0342034 0.0346012 0.0349994
0.0353982 0.0357941 0.0361912 0.0365886 0.036986 0.0373848 0.0375854 0.037786 0.0379864 0.0381867
0.0383875 0.038586 0.0387837 0.0389809 0.0391774 0.0393742 0.0395722 0.0397693 0.039966 0.0401625
0.0403582 0.0405334 0.0407081 0.0408837 0.0410592 0.041279 0.0413217 0.0413643 0.041407 0.0414496
0.0414923 0.0417155 0.0419403 0.0421649 0.0423893 0.0426135 0.042825 0.0430364 0.0432473 0.043458
0.0436684 0.0438733 0.0440777 0.0442805 0.0444831 0.0446857 0.0447858 0.0448859 0.0449862 0.0450865
0.0451868 0.0452858 0.0453847 0.0454837 0.0455826 0.0456815 0.0458801 0.0460787 0.0462774 0.0464761
0.0466753 0.0468749 0.0470742 0.0472735 0.0474728 0.0476722 0.0478726 0.0480721 0.0482709 0.0484698
0.0486687 0.0488679 0.0490668 0.049266 0.0494653 0.0496643 0.0498646 0.0500648 0.050265 0.0504653
0.0506656 0.0508664 0.0510673 0.0512685 0.0514698 0.0516708 0.0518712 0.0520715 0.052272 0.0524725
0.0526734 0.0528747 0.0530751 0.0532757 0.0534764 0.0536773 0.0538812 0.0540843 0.0542873 0.0544901
0.0546928 0.054897 0.0551001 0.0553031 0.0555061 0.0557091 0.0559142 0.0561183 0.0563224 0.0565266
0.0567306 0.0568307 0.0569309 0.0570312 0.0571316 0.0572321 0.0573249 0.0574176 0.0575102 0.0576027
0.0576952 0.0577948 0.0578946 0.0579944 0.0580942 0.058194 0.0582959 0.0583976 0.0584992 0.0586008
0.0587022 0.0588036 0.058905 0.0590065 0.0591079 0.0592093 0.0593105 0.0594114 0.0595123 0.059613
0.0597135 0.0598128 0.0599119 0.060011 0.0601102 0.0602093 0.0603103 0.0604112 0.060512 0.0606127
0.0607133 0.0608133 0.0609133 0.0610132 0.0611132 0.0612131 0.0613126 0.061412 0.0615113 0.0616105
0.0617096 0.0618076 0.0619055 0.0620035 0.0621014 0.0621994 0.0622964 0.0623932 0.06249 0.0625868
0.0626835 0.062781 0.0628785 0.062976 0.0630735 0.063171 0.06327 0.0633688 0.0634676 0.0635664
0.0636652 0.0638651 0.0640649 0.064265 0.0644653 0.0646659 0.0647643 0.0648629 0.0649616 0.0650604
0.0651593 0.0652589 0.0653585 0.0654581 0.0655577 0.0656572 0.065856 0.0660548 0.0662537 0.0664527
0.0666515 0.0668506 0.0670493 0.0672481 0.0674469 0.0676459 0.0678458 0.0680447 0.0682437 0.0684428
0.068642 0.0688436 0.0690441 0.0692446 0.0694451 0.0696456 0.0698473 0.0700487 0.0702503 0.070452
0.0706537 0.0708549 0.0710564 0.0712582 0.0714599 0.0716614 0.0718622 0.0720631 0.0722641 0.0724651
0.0726662 0.0727859 0.0729057 0.0730256 0.0731456 0.0732664 0.0733481 0.0734298 0.0735116 0.0735936
0.0736757 0.0738785 0.0740816 0.0742852 0.0744889 0.0746922 0.0748945 0.0750979 0.0753015 0.0755052
0.0757089 0.0759103 0.0761134 0.0763171 0.0765207 0.0767237 0.0767688 0.076814 0.0768593 0.0769045
0.0769502 0.0771049 0.0772592 0.0774135 0.0775679 0.0777222 0.0779251 0.0781274 0.07833 0.0785328
0.0787358 0.0789441 0.0791516 0.079359 0.0795664 0.0797738 0.0799958 0.0802164 0.0804374 0.0806586
0.0808802 0.0811024 0.081324 0.0815459 0.0817682 0.0819909 0.0821972 0.0824031 0.0826097 0.0828169
0.0830248 0.0832298 0.083435 0.0836406 0.0838465 0.0840526 0.0842593 0.0844661 0.0846733 0.0848807
0.0850885 0.085176 0.0852634 0.0853509 0.0854384 0.0855308 0.0856503 0.0857699 0.0858895 0.0860092
0.0861288 0.0865413 0.0869553 0.0873721 0.0877912 0.0882122 0.0886377 0.0890643 0.0894907 0.0899169
0.0903429 0.0907688 0.0911959 0.0916228 0.0920495 0.0924759 0.0929022 0.0933293 0.0937562 0.094183
0.0946095 0.0950359 0.0954633 0.0958906 0.0963178 0.0967448 0.0971715 0.0975991 0.0980265 0.0984537
0.0988809 0.0993076 0.0997353 0.100163 0.10059 0.101018 0.101445 0.101872 0.1023 0.102727
0.103154 0.103581 0.104009 0.104436 0.104864 0.105291 0.105718 0.106145 0.106573 0.107
0.107427 0.107874 0.108321 0.108769 0.109216 0.109664 0.110077 0.110492 0.110906 0.111321
0.111735 0.112155 0.112577 0.112998 0.113419 0.11384 0.114266 0.114692 0.115118 0.115544
0.115971 0.116397 0.116824 0.117251 0.117678 0.118104 0.118434 0.118764 0.119094 0.119424
0.11975 0.119847 0.119945 0.120042 0.12014 0.120237 0.120664 0.12109 0.121517 0.121944
0.122371 0.122797 0.123224 0.12365 0.124077 0.124503 0.12493 0.125356 0.125783 0.126209
0.126635 0.127062 0.127488 0.127914 0.128341 0.128767 0.129072 0.129378 0.129683 0.129989
0.130297 0.130417 0.130537 0.130657 0.130778 0.130898 0.131324 0.13175 0.132176 0.132602
0.133029 0.133455 0.133881 0.134307 0.134733 0.135158 0.135585 0.13601 0.136436 0.136862
0.137288 0.137714 0.13814 0.138566 0.138991 0.139417 0.139843 0.140269 0.140694 0.14112
0.141546 0.141971 0.142397 0.142822 0.143248 0.143673 0.144099 0.144525 0.14495 0.145376
0.145801 0.146227 0.146652 0.147077 0.147503 0.147928 0.148354 0.148779 0.149204 0.149629
0.150054 0.15048 0.150905 0.15133 0.151755 0.15218 0.152606 0.153031 0.153456 0.153881
0.154306 0.154732 0.155157 0.155582 0.156006 0.156431 0.156857 0.157282 0.157707 0.158131
0.158556 0.158982 0.159406 0.159831 0.160256 0.16068 0.161106 0.161531 0.161955 0.16238
0.162804 0.16323 0.163654 0.164079 0.164503 0.164928 0.165354 0.165778 0.166202 0.166627
0.167051 0.167477 0.167901 0.168325 0.16875 0.169174 0.169599 0.170024 0.170448 0.170872
0.171296 0.171722 0.172146 0.17257 0.172994 0.173418 0.173844 0.174268 0.174692 0.175116
0.17554 0.175966 0.17639 0.176814 0.177238 0.177662 0.178087 0.178511 0.178935 0.179359
0.179783 0.180208 0.180632 0.181056 0.18148 0.181904 0.182329 0.182753 0.183177 0.183601
0.184024 0.184449 0.184873 0.185297 0.185721 0.186145 0.18657 0.186994 0.187418 0.187842
0.188266 0.188691 0.189115 0.189539 0.189963 0.190387 0.190813 0.191237 0.191661 0.192085
0.19251 0.192935 0.193359 0.193784 0.194208 0.194632 0.195057 0.195482 0.195906 0.196331
0.196756 0.19718 0.197605 0.19803 0.198455 0.198879 0.198931 0.198983 0.199035 0.199087
0.199138 0.199511 0.199884 0.200257 0.20063 0.201003 0.201428 0.201852 0.202277 0.202701
0.203125 0.20355 0.203974 0.204398 0.204822 0.205247 0.205671 0.206095 0.206519 0.206943
0.207366 0.207791 0.208215 0.208638 0.209062 0.209485 0.20991 0.210333 0.210756 0.21118
0.211603 0.212027 0.212451 0.212874 0.213297 0.21372 0.214144 0.214567 0.21499 0.215413
0.215835 0.21626 0.216682 0.217105 0.217528 0.21795 0.218374 0.218797 0.219219 0.219641
0.220064 0.220488 0.22091 0.221332 0.221755 0.222177 0.222601 0.223023 0.223445 0.223866
0.224288 0.224713 0.225134 0.225556 0.225978 0.226399 0.226823 0.227245 0.227666 0.228088
0.228509 0.228933 0.229355 0.229776 0.230198 0.230619 0.231043 0.231464 0.231885 0.232306
0.232728 0.233152 0.233573 0.233994 0.234415 0.234836 0.23526 0.235681 0.236102 0.236523
0.236944 0.237368 0.237789 0.23821 0.238631 0.239052 0.239476 0.239897 0.240318 0.240739
0.24116 0.241583 0.242004 0.242425 0.242846 0.243267 0.24369 0.244111 0.244532 0.244952
0.245373 0.245797 0.246218 0.246638 0.247059 0.24748 0.247903 0.248324 0.248744 0.249165
0.249586 0.250009 0.25043 0.25085 0.251271 0.251691 0.252114 0.252535 0.252955 0.253376
0.253797 0.25422 0.25464 0.255061 0.255481 0.255902 0.256325 0.256745 0.257165 0.257586
0.258006 0.258429 0.25885 0.25927 0.259691 0.260111 0.260534 0.260954 0.261374 0.261795
0.262215 0.262638 0.263058 0.263479 0.263899 0.264319 0.264742 0.265162 0.265582 0.266003
0.266423 0.266846 0.267266 0.267686 0.268106 0.268527 0.268949 0.269369 0.269789 0.270209
0.27063 0.271053 0.271473 0.271893 0.272313 0.272733 0.273155 0.273576 0.273996 0.274416
0.274836 0.275259 0.275679 0.276099 0.276519 0.276939 0.277361 0.277781 0.278201 0.278621
0.279041 0.279464 0.279884 0.280304 0.280724 0.281144 0.281566 0.281986 0.282406 0.282826
0.283246 0.283668 0.284088 0.284508 0.284928 0.285348 0.28577 0.28619 0.28661 0.287029
0.287449 0.287872 0.288292 0.288711 0.289131 0.289551 0.289973 0.290393 0.290813 0.291232
0.291652 0.292075 0.292495 0.292914 0.293334 0.293754 0.294176 0.294596 0.295015 0.295435
0.295855 0.296277 0.296697 0.297116 0.297536 0.297956 0.298377 0.298797 0.299217 0.299636
0.300056 0.300478 0.300898 0.301318 0.301737 0.302157 0.302578 0.302998 0.303418 0.303837
0.304257 0.304679 0.305099 0.305518 0.305938 0.306358 0.306779 0.307199 0.307618 0.308038
0.308457 0.308879 0.309299 0.309718 0.310138 0.310557 0.310979 0.311399 0.311818 0.312237
0.312657 0.313079 0.313498 0.313918 0.314337 0.314757 0.315178 0.315598 0.316017 0.316436
0.316856 0.317278 0.317697 0.318116 0.318536 0.318955 0.319376 0.319796 0.320215 0.320635
0.321054 0.321476 0.321896 0.322315 0.322734 0.323153 0.323574 0.323994 0.324413 0.324832
0.325252 0.325673 0.326093 0.326512 0.326931 0.327351 0.327772 0.328192 0.328611 0.32903
0.329449 0.32987 0.330289 0.330708 0.331127 0.331547 0.331968 0.332387 0.332806 0.333225
0.333645 0.334066 0.334486 0.334905 0.335324 0.335743 0.336164 0.336584 0.337003 0.337422
0.337841 0.338262 0.338682 0.339101 0.33952 0.339939 0.34036 0.340779 0.341198 0.341617
0.342037 0.342458 0.342877 0.343296 0.343715 0.344134 0.344555 0.344974 0.345393 0.345812
0.346232 0.346652 0.347072 0.347491 0.34791 0.348329 0.34875 0.349169 0.349588 0.350007
0.350426 0.350847 0.351266 0.351685 0.352104 0.352523 0.352944 0.353363 0.353782 0.354201
0.35462 0.355041 0.35546 0.355879 0.356298 0.356717 0.357137 0.357557 0.357975 0.358394
0.358813 0.359234 0.359653 0.360072 0.360491 0.36091 0.36133 0.36175 0.362168 0.362587
0.363006 0.363427 0.363846 0.364265 0.364684 0.365103 0.365523 0.365942 0.366361 0.36678
0.367199 0.367619 0.368039 0.368457 0.368876 0.369295 0.369715 0.370135 0.370553 0.370972
0.371391 0.371812 0.372231 0.37265 0.373068 0.373488 0.373908 0.374327 0.374746 0.375164
0.375584 0.376004 0.376423 0.376842 0.377261 0.37768 0.3781 0.378519 0.378938 0.379357
0.379776 0.380196 0.380615 0.381034 0.381453 0.381872 0.382292 0.382711 0.38313 0.383549
0.383968 0.384388 0.384807 0.385226 0.385645 0.386064 0.386483 0.386903 0.387322 0.38774
0.388159 0.388579 0.388998 0.389417 0.389836 0.390255 0.390675 0.391094 0.391513 0.391932
0.392351 0.392771 0.39319 0.393609 0.394028 0.394447 0.394866 0.395285 0.395704 0.396123
0.396542 0.396962 0.397381 0.3978 0.398219 0.398638 0.399057 0.399476 0.399895 0.400314
0.400733 0.401153 0.401571 0.40199 0.402409 0.402828 0.403248 0.403667 0.404086 0.404505
0.404924 0.405343 0.405762 0.406181 0.4066 0.407019 0.407438 0.407857 0.408276 0.408695
0.409114 0.409533 0.409952 0.410371 0.41079 0.411209 0.411628 0.412047 0.412466 0.412885