# vtk DataFile Version 2.0
tracks
ASCII
DATASET POLYDATA
POINTS 25045 float
-1.001 -0.05 0.0011 -0.99549 -0.0500011 0.00110424 -0.989981 -0.0500023 0.00110854 -0.984471 -0.0500035
0.0011129 -0.978962 -0.0500047 0.00111731 -0.973452 -0.0500059 0.00112176 -0.966891 -0.0500073 0.00112707
-0.960329 -0.0500087 0.0011324 -0.953767 -0.0500102 0.00113781 -0.947206 -0.0500118 0.00114328 -0.940644
-0.0500134 0.00114882 -0.934083 -0.0500148 0.00115448 -0.927521 -0.0500164 0.00116028 -0.920959 -0.0500181
0.00116617 -0.914397 -0.0500198 0.00117216 -0.907836 -0.0500215 0.00117824 -0.901275 -0.0500233 0.00118437
-0.894715 -0.0500251 0.00119049 -0.888154 -0.0500269 0.00119673 -0.881594 -0.0500289 0.00120307 -0.875033
-0.0500309 0.00120949 -0.868472 -0.0500328 0.00121611 -0.861912 -0.0500349 0.00122286 -0.855351 -0.0500371
0.00122973 -0.84879 -0.0500393 0.00123671 -0.84223 -0.0500417 0.00124381 -0.835672 -0.050044 0.00125101
-0.829114 -0.0500464 0.00125814 -0.822556 -0.050049 0.00126541 -0.815998 -0.0500516 0.0012728 -0.80944
-0.0500544 0.0012803 -0.802897 -0.0500571 0.00128805 -0.796353 -0.05006 0.00129594 -0.78981 -0.050063
0.00130396 -0.783267 -0.0500662 0.00131213 -0.776724 -0.0500695 0.00132044 -0.77029 -0.0500727 0.00132876
-0.763856 -0.0500761 0.00133692 -0.757423 -0.0500797 0.00134523 -0.750989 -0.0500834 0.0013537 -0.744555
-0.0500874 0.0013623 -0.737905 -0.0500914 0.00137156 -0.731255 -0.0500957 0.00138098 -0.724606 -0.0501003
0.00139057 -0.717956 -0.050105 0.00140036 -0.711306 -0.0501101 0.00141033 -0.704715 -0.0501151 0.00142042
-0.698124 -0.0501204 0.00143031 -0.691533 -0.050126 0.00144042 -0.684942 -0.050132 0.00145075 -0.678351
-0.0501383 0.00146129 -0.671806 -0.0501445 0.00147221 -0.665261 -0.050151 0.00148322 -0.658716 -0.050158
0.00149444 -0.65217 -0.0501654 0.00150588 -0.645625 -0.0501732 0.00151752 -0.639089 -0.0501812 0.00152945
-0.632552 -0.0501896 0.00154097 -0.626016 -0.0501987 0.00155275 -0.619479 -0.0502084 0.00156482 -0.612943
-0.0502186 0.00157716 -0.606414 -0.050229 0.00159018 -0.599885 -0.0502398 0.00160309 -0.593356 -0.0502515
0.00161625 -0.586827 -0.050264 0.00162967 -0.580297 -0.0502773 0.00164334 -0.573782 -0.050291 0.00165746
-0.567267 -0.0503058 0.00167046 -0.560752 -0.0503218 0.00168375 -0.554237 -0.0503391 0.00169733 -0.547722
-0.0503576 0.00171119 -0.541221 -0.0503763 0.00172615 -0.53472 -0.0503961 0.00174038 -0.52822 -0.0504178
0.00175483 -0.521719 -0.0504414 0.0017695 -0.515218 -0.0504669 0.0017844 -0.508738 -0.050493 0.00179997
-0.502257 -0.0505221 0.0018118 -0.495777 -0.0505544 0.00182374 -0.489296 -0.0505898 0.0018358 -0.482815
-0.0506284 0.00184796 -0.476355 -0.0506673 0.00186314 -0.469895 -0.0507105 0.00187599 -0.463435 -0.0507587
0.00188921 -0.456974 -0.0508121 0.0019028 -0.450514 -0.0508705 0.00191676 -0.444098 -0.0509286 0.00193349
-0.437682 -0.050996 0.00194738 -0.431266 -0.051075 0.00196124 -0.424851 -0.0511641 0.00197514 -0.418434
-0.0512632 0.00198909 -0.415232 -0.0513192 0.00199581 -0.41203 -0.0513802 0.00200181 -0.408828 -0.0514463
0.00200759 -0.405627 -0.0515181 0.00201319 -0.402424 -0.0515953 0.00201927 -0.399207 -0.051678 0.00202688
-0.39599 -0.0517753 0.00203311 -0.392773 -0.051883 0.00203895 -0.389557 -0.0519986 0.00204506 -0.386336
-0.05212 0.00205131 -0.38315 -0.052242 0.00205734 -0.379965 -0.0523855 0.00206473 -0.376781 -0.0525489
0.00207263 -0.373599 -0.0527312 0.00208054 -0.370405 -0.0529313 0.00208944 -0.367157 -0.0531488 0.00210132
-0.363913 -0.0534126 0.00211215 -0.360669 -0.0536883 0.0021227 -0.357426 -0.053966 0.00213321 -0.35416
-0.0542484 0.00214317 -0.350768 -0.0545471 0.00214812 -0.347373 -0.0548184 0.00215584 -0.343978 -0.0550728
0.00216383 -0.340581 -0.0553128 0.0021715 -0.337202 -0.0555443 0.00217905 -0.333571 -0.0558087 0.00218789
-0.329935 -0.0559809 0.00219169 -0.326298 -0.0561158 0.00219418 -0.32266 -0.0562316 0.00219655 -0.31904
-0.0563348 0.00219957 -0.315547 -0.0564382 0.00220674 -0.312052 -0.0565167 0.00220725 -0.308558 -0.0565818
0.0022062 -0.305063 -0.0566389 0.00220487 -0.30157 -0.056694 0.00220443 -0.298204 -0.0567634 0.00220829
-0.294838 -0.0568 0.00220649 -0.291471 -0.0568255 0.00220339 -0.288105 -0.0568473 0.00220045 -0.28474
-0.0568683 0.00219929 -0.281419 -0.0568972 0.00220507 -0.278098 -0.0569081 0.00220336 -0.274777 -0.0569111
0.0021998 -0.271456 -0.0569094 0.00219612 -0.268135 -0.0569086 0.00219346 -0.264847 -0.0569272 0.00219558
-0.261559 -0.0569216 0.00219269 -0.258271 -0.0569105 0.00218864 -0.254983 -0.0568997 0.00218458 -0.251694
-0.0568917 0.00218207 -0.248411 -0.0568954 0.00218614 -0.245129 -0.056884 0.00218343 -0.241846 -0.0568666
0.00217887 -0.238563 -0.0568459 0.00217402 -0.23528 -0.0568274 0.00216998 -0.232 -0.0568286 0.00217021
-0.228721 -0.0568091 0.00216582 -0.225441 -0.056786 0.00216026 -0.222162 -0.0567653 0.00215471 -0.218882
-0.0567515 0.00215027 -0.2156 -0.0567586 0.00215025 -0.212318 -0.0567446 0.0021457 -0.209036 -0.0567249
0.0021399 -0.205755 -0.0567049 0.00213399 -0.202472 -0.0566881 0.00212982 -0.199201 -0.0566847 0.00213287
-0.195929 -0.0566684 0.00212853 -0.192658 -0.0566492 0.00212233 -0.189386 -0.0566305 0.00211616 -0.186115
-0.0566159 0.00211213 -0.182832 -0.0566149 0.00211629 -0.179549 -0.0566009 0.00211158 -0.176266 -0.0565829
0.00210434 -0.172984 -0.0565643 0.00209684 -0.169701 -0.0565498 0.00209043 -0.166404 -0.0565539 0.00208915
-0.163107 -0.0565402 0.00208239 -0.159809 -0.0565235 0.00207444 -0.156512 -0.0565083 0.00206648 -0.153214
-0.0564973 0.00206045 -0.149939 -0.0564995 0.00206282 -0.146664 -0.0564901 0.00205619 -0.143389 -0.0564791
0.00204743 -0.140114 -0.0564692 0.00203829 -0.136839 -0.0564625 0.00203013 -0.13359 -0.0564682 0.00202867
-0.130341 -0.0564649 0.00201919 -0.127092 -0.0564616 0.00200817 -0.123843 -0.0564598 0.00199667 -0.120594
-0.0564603 0.00198535 -0.117313 -0.0564716 0.00197951 -0.114031 -0.0564776 0.00196705 -0.11075 -0.0564861
0.00195448 -0.107468 -0.0564975 0.0019423 -0.104187 -0.0565118 0.00193053 -0.10092 -0.0565365 0.00192504
-0.0976536 -0.0565655 0.00191126 -0.0943869 -0.0565972 0.00189493 -0.0911203 -0.0566314 0.00188003 -0.0878538
-0.0566696 0.00186329 -0.0862118 -0.0566919 0.00185493 -0.0845698 -0.0567137 0.00184449 -0.0829278 -0.0567356
0.00183282 -0.0812859 -0.0567582 0.00182091 -0.079644 -0.0567829 0.00181016 -0.0779946 -0.0568106 0.0018017
-0.0763452 -0.0568388 0.00179212 -0.0746958 -0.0568678 0.00178203 -0.0730464 -0.0568984 0.00177242 -0.071397
-0.0569312 0.00176388 -0.0697381 -0.0569669 0.00175674 -0.0680792 -0.0570037 0.00174872 -0.0664204 -0.0570417
0.0017401 -0.0647616 -0.0570814 0.0017313 -0.0631026 -0.057124 0.00172343 -0.0614557 -0.05717 0.00171703
-0.0598089 -0.0572162 0.00170918 -0.0581621 -0.0572632 0.00170034 -0.0565153 -0.0573119 0.00169144 -0.0548683
-0.0573635 0.00168262 -0.0532233 -0.0574185 0.00167396 -0.0515783 -0.0574752 0.00166413 -0.0499334 -0.0575339
0.0016533 -0.0482886 -0.0575947 0.00164191 -0.0466431 -0.0576604 0.0016321 -0.0450071 -0.0577316 0.00162458
-0.0433711 -0.0578006 0.00161403 -0.041735 -0.0578681 0.00160118 -0.0400989 -0.057937 0.00158811 -0.0384631
-0.0580117 0.00157524 -0.0368461 -0.0580922 0.00156283 -0.035229 -0.0581708 0.00154898 -0.0336119 -0.0582478
0.00153377 -0.0319948 -0.0583249 0.00151761 -0.030378 -0.0584118 0.00150399 -0.028778 -0.0585092 0.00149364
-0.0271771 -0.0585889 0.00147984 -0.0255754 -0.0586534 0.00146318 -0.0239737 -0.0587154 0.00144634 -0.022378
-0.0587945 0.00143034 -0.0208127 -0.0588929 0.00141561 -0.0192458 -0.0589638 0.00140052 -0.0176783 -0.0590154
0.00138496 -0.0161106 -0.059064 0.00136875 -0.0145609 -0.0591194 0.0013525 -0.01279 -0.0592066 0.00133408
-0.0110177 -0.059255 0.00131598 -0.00924498 -0.0592888 0.00129824 -0.00747221 -0.0593185 0.00128094 -0.00570676
-0.0593455 0.00126424 -0.00397232 -0.0593931 0.00124977 -0.0022373 -0.0594086 0.00123411 -0.000502259 -0.0594196
0.00121795 0.0012328 -0.059426 0.00120128 0.00296658 -0.0594279 0.00118441 0.00465496 -0.059447 0.00116609
0.00634347 -0.0594411 0.00114945 0.00803196 -0.0594334 0.00113291 0.00972045 -0.0594238 0.00111659 0.0114086
-0.0594123 0.0011005 0.0131396 -0.0594229 0.00108584 0.0148704 -0.0594076 0.00106825 0.0166013 -0.0593886
0.00104977 0.0183321 -0.0593669 0.00103047 0.0200673 -0.0593477 0.00101039 0.0216705 -0.0593487 0.000990702
0.0232737 -0.0593325 0.000970606 0.0248767 -0.0593107 0.000950359 0.0264798 -0.0592892 0.000930282 0.0280852
-0.0592731 0.000910675 0.0296715 -0.0592707 0.000892342 0.0312576 -0.0592542 0.000872648 0.0328438 -0.059232
0.000852176 0.0344298 -0.0592087 0.00083124 0.0360169 -0.0591882 0.000809697 0.0376212 -0.0591781 0.000786909
0.0392253 -0.0591581 0.000765022 0.0408294 -0.0591356 0.000743549 0.0424336 -0.059114 0.000722563 0.044038
-0.0590955 0.000702176 0.0456567 -0.0590863 0.000682539 0.0472754 -0.0590671 0.000661925 0.0488939 -0.0590445
0.000640775 0.0505125 -0.0590204 0.000619223 0.0521316 -0.0589963 0.00059721 0.053758 -0.0589786 0.00057421
0.0553843 -0.0589521 0.000552001 0.0570107 -0.0589238 0.000530094 0.058637 -0.0588954 0.000508578 0.0602637
-0.0588682 0.000487425 0.0618925 -0.0588491 0.000466496 0.0635211 -0.0588211 0.000445082 0.0651497 -0.0587906
0.000423264 0.0667782 -0.0587587 0.000401054 0.0684075 -0.0587259 0.000378339 0.0700329 -0.0586985 0.000354003
0.0716583 -0.0586645 0.000331602 0.0732837 -0.0586303 0.000309509 0.0749091 -0.0585965 0.000287773 0.0765349
-0.058563 0.000266324 0.0781579 -0.0585354 0.000243145 0.0797808 -0.0585011 0.000221655 0.0814037 -0.0584654
0.000199876 0.0830266 -0.0584282 0.000177761 0.0846501 -0.0583898 0.000155477 0.086286 -0.0583555 0.000131115
0.0879218 -0.058315 0.000111172 0.0895576 -0.0582758 9.17655e-05 0.0911935 -0.0582384 7.29809e-05 0.0928298
-0.0582032 5.46498e-05 0.0961334 -0.0581477 1.32822e-05 0.0994369 -0.0580915 -3.04062e-05 0.102741 -0.0580368
-7.65737e-05 0.106044 -0.0579847 -0.000122396 0.109348 -0.0579339 -0.000168109 0.112674 -0.0578831 -0.000211764
[...]
POINT_DATA 25045
FIELD attributes 4
age 1 25045 float
0 0.000332661 0.000665333 0.000998014 0.00133071 0.00166341 0.00205965 0.00245591 0.00285219 0.00324849 0.0036448
0.00404114 0.00443751 0.0048339 0.0052303 0.00562673 0.0060231 0.00641949 0.00681591 0.00721236 0.00760883
0.00800533 0.00840186 0.00879842 0.009195 0.00959162 0.00998809 0.0103846 0.0107811 0.0111777 0.0115743
0.0119701 0.0123658 0.0127617 0.0131575 0.0135534 0.0139427 0.0143321 0.0147215 0.0151109 0.0155004
0.015903 0.0163057 0.0167084 0.0171112 0.017514 0.0179133 0.0183127 0.0187122 0.0191117 0.0195113
0.0199082 0.0203051 0.0207022 0.0210993 0.0214965 0.0218933 0.0222902 0.0226871 0.0230842 0.0234814
0.0238782 0.0242752 0.0246723 0.0250695 0.0254669 0.0258635 0.0262603 0.0266573 0.0270545 0.0274518
0.0278483 0.0282453 0.0286424 0.0290398 0.0294374 0.0298339 0.030231 0.0306283 0.031026 0.0314239
0.0318207 0.0322185 0.0326167 0.0330153 0.0334143 0.0338107 0.0342087 0.0346074 0.0350066 0.0354064
0.0356065 0.0358068 0.0360073 0.0362081 0.0364092 0.0366117 0.0368136 0.0370151 0.0372164 0.0374182
0.0376187 0.0378178 0.0380162 0.0382142 0.0384133 0.0386177 0.038818 0.0390169 0.0392152 0.0394147
0.0396241 0.0398304 0.0400359 0.0402411 0.0404443 0.0406601 0.0408779 0.0410962 0.0413143 0.0415315
0.0417435 0.0419531 0.0421624 0.0423716 0.0425812 0.0427854 0.0429874 0.0431889 0.0433904 0.0435926
0.0437951 0.0439947 0.0441937 0.0443928 0.0445926 0.0447931 0.0449911 0.0451885 0.0453859 0.0455841
0.0457851 0.045983 0.0461804 0.0463778 0.0465761 0.0467772 0.0469754 0.0471728 0.0473703 0.0475684
0.0477697 0.0479682 0.0481659 0.0483637 0.0485624 0.0487636 0.0489618 0.0491592 0.0493567 0.049555
0.0497571 0.0499562 0.0501546 0.0503531 0.0505525 0.0507558 0.0509562 0.0511559 0.0513555 0.0515559
0.0517579 0.0519571 0.0521558 0.0523545 0.0525539 0.0527545 0.0529525 0.0531501 0.053348 0.0535462
0.0537495 0.0539501 0.0541507 0.0543516 0.0545526 0.0547534 0.054954 0.0551546 0.0553557 0.0555566
0.0556578 0.0557589 0.05586 0.0559612 0.0560625 0.0561646 0.0562664 0.0563682 0.0564699 0.0565716
0.0566741 0.0567764 0.0568788 0.0569812 0.0570837 0.0571857 0.0572875 0.0573891 0.0574907 0.0575923
0.0576938 0.0577952 0.0578965 0.0579978 0.0580994 0.0582005 0.0583014 0.0584021 0.0585026 0.0586031
0.0587023 0.0588015 0.0589007 0.0589998 0.0590989 0.0591969 0.0592948 0.0593928 0.0594906 0.0595875
0.059682 0.0597769 0.0598719 0.0599669 0.0600606 0.0601674 0.0602743 0.0603812 0.0604879 0.0605941
0.0606982 0.0608025 0.0609068 0.061011 0.0611152 0.061217 0.0613183 0.0614195 0.0615205 0.0616214
0.0617252 0.0618284 0.0619314 0.0620344 0.0621378 0.062234 0.0623293 0.0624244 0.0625194 0.0626147
0.0627096 0.0628037 0.0628977 0.0629917 0.0630862 0.0631827 0.0632782 0.0633735 0.0634688 0.0635643
0.0636616 0.0637581 0.0638546 0.0639511 0.0640479 0.0641461 0.0642433 0.0643405 0.0644377 0.0645351
0.0646337 0.0647315 0.0648294 0.0649274 0.0650256 0.0651247 0.0652229 0.0653211 0.0654194 0.0655178
0.0656172 0.0657157 0.0658143 0.0659129 0.0660117 0.0661124 0.0662119 0.0663114 0.066411 0.0665108
0.0667146 0.0669185 0.0671227 0.067327 0.0675317 0.067738 0.0679445 0.0681514 0.0683587 0.0685664
0.0687831 0.0689862 0.0691895 0.0693929 0.0695965 0.0698093 0.0700156 0.0702215 0.0704275 0.0706347
0.0708548 0.0710626 0.071269 0.0714756 0.0716834 0.0718974 0.0721051 0.072312 0.0725193 0.0727293
0.0729509 0.0731604 0.0733669 0.0735734 0.0737826 0.0740042 0.0742142 0.0744213 0.0746285 0.0748391
0.0750617 0.075273 0.075481 0.0756888 0.0758987 0.0761151 0.0763252 0.076533 0.0767411 0.076952
0.0771709 0.0773828 0.0775917 0.0778005 0.0780118 0.0782311 0.0784438 0.0786538 0.078864 0.0790785
0.0793079 0.079528 0.0797434 0.0799588 0.0801775 0.0804122 0.0806404 0.0808651 0.0810901 0.0813219
0.0815692 0.0818053 0.0820348 0.0822645 0.0824983 0.0827314 0.0829586 0.0831834 0.0834092 0.0836403
0.0838633 0.0840782 0.084289 0.0845001 0.0847129 0.084932 0.0851462 0.085359 0.0855722 0.0857877
0.0860099 0.0862242 0.0864358 0.0866478 0.0868618 0.0873015 0.0877393 0.0881804 0.0886237 0.08907
0.0895065 0.0899579 0.0904094 0.0908607 0.0913118 0.0917505 0.0922024 0.0926547 0.0931069 0.0935586
0.0939955 0.0944472 0.0949012 0.095355 0.0958074 0.0962484 0.0967012 0.0971555 0.0976097 0.0980613
0.0984981 0.0989496 0.0994037 0.0998578 0.10031 0.10075 0.101202 0.101657 0.102111 0.102562
0.103002 0.103453 0.103907 0.104361 0.104813 0.105258 0.105715 0.106175 0.106635 0.107091
0.107531 0.107985 0.108444 0.108902 0.109357 0.10979 0.110232 0.110678 0.111124 0.111565
0.111998 0.112444 0.112894 0.113345 0.113792 0.114231 0.11468 0.115132 0.115583 0.116031
0.116466 0.116913 0.117362 0.117811 0.118259 0.118697 0.119145 0.119591 0.120037 0.120483
0.120917 0.121361 0.121803 0.122244 0.122685 0.123121 0.12356 0.123997 0.124434 0.124871
0.125192 0.125513 0.125835 0.126157 0.126474 0.127023 0.127573 0.128121 0.128669 0.129216
0.130083 0.13095 0.131818 0.132685 0.13355 0.134413 0.135278 0.136144 0.13701 0.137874
0.138733 0.139597 0.140462 0.141326 0.142189 0.143048 0.143911 0.144775 0.145638 0.1465
0.147364 0.148226 0.149089 0.149952 0.150814 0.151677 0.152538 0.1534 0.154263 0.15512
0.15598 0.156837 0.157699 0.158561 0.15942 0.160274 0.161133 0.161994 0.162855 0.163715
0.164577 0.165436 0.166297 0.167158 0.168016 0.168867 0.169725 0.170585 0.171445 0.172303
0.173162 0.174019 0.174879 0.175739 0.176595 0.177446 0.178302 0.179161 0.18002 0.180878
0.181737 0.182595 0.183454 0.184313 0.185168 0.186018 0.186872 0.187731 0.188589 0.189446
0.190304 0.191161 0.192019 0.192877 0.193733 0.19459 0.195447 0.196304 0.197161 0.198017
0.198873 0.199729 0.200586 0.201442 0.202295 0.203143 0.203996 0.204852 0.205708 0.206562
0.207417 0.208271 0.209126 0.209982 0.210834 0.211681 0.212533 0.213388 0.214242 0.215096
0.215949 0.216802 0.217656 0.218511 0.219362 0.220209 0.22106 0.221914 0.222767 0.223619
0.224471 0.225323 0.226176 0.227029 0.22788 0.228726 0.229576 0.230429 0.231282 0.232133
0.232983 0.233835 0.234686 0.235539 0.236389 0.237235 0.238084 0.238936 0.239787 0.240638
0.241487 0.242338 0.243189 0.24404 0.24489 0.245739 0.246589 0.247441 0.248291 0.24914
0.249989 0.250838 0.251688 0.252539 0.253389 0.254236 0.255086 0.255936 0.256786 0.257635
0.258482 0.259331 0.26018 0.26103 0.261878 0.262723 0.263571 0.264421 0.26527 0.266118
0.266964 0.267812 0.268661 0.269511 0.270358 0.271202 0.272049 0.272899 0.273747 0.274594
0.27544 0.276287 0.277135 0.277984 0.278831 0.279675 0.280522 0.281371 0.282218 0.283065
0.28391 0.284756 0.285604 0.286452 0.287298 0.288142 0.288988 0.289836 0.290683 0.291529
0.292374 0.29322 0.294066 0.294914 0.29576 0.296604 0.297449 0.298297 0.299143 0.299989
0.300832 0.301678 0.302524 0.303371 0.304216 0.305059 0.305905 0.306752 0.307597 0.308442
0.309285 0.31013 0.310976 0.311823 0.312667 0.31351 0.314355 0.315201 0.316046 0.316891
0.317733 0.318578 0.319423 0.320269 0.321114 0.321956 0.322801 0.323647 0.324492 0.325336
0.326177 0.327021 0.327866 0.328712 0.329556 0.330398 0.331242 0.332088 0.332932 0.333776
0.334617 0.33546 0.336304 0.33715 0.337993 0.338836 0.339679 0.340524 0.341368 0.342211
0.343052 0.343895 0.344739 0.345584 0.346427 0.347269 0.348112 0.348957 0.3498 0.350643
0.351483 0.352325 0.353169 0.354013 0.354856 0.355698 0.356541 0.357385 0.358228 0.35907
0.359909 0.360752 0.361595 0.362439 0.363281 0.364123 0.364965 0.365809 0.366652 0.367494
0.368332 0.369174 0.370017 0.37086 0.371703 0.372544 0.373386 0.374229 0.375072 0.375913
0.376751 0.377593 0.378435 0.379278 0.38012 0.380961 0.381803 0.382646 0.383488 0.384329
0.385167 0.386008 0.38685 0.387693 0.388535 0.389375 0.390217 0.391059 0.391901 0.392742
0.393579 0.39442 0.395261 0.396104 0.396945 0.397785 0.398627 0.399469 0.40031 0.401151
0.401988 0.402828 0.403669 0.404512 0.405353 0.406193 0.407033 0.407875 0.408716 0.409556
0.410393 0.411233 0.412074 0.412916 0.413756 0.414596 0.415437 0.416278 0.417119 0.41796
0.418799 0.41964 0.42048 0.421322 0.422162 0.423002 0.423842 0.424683 0.425524 0.426363
0.427199 0.428038 0.428879 0.42972 0.43056 0.431399 0.432239 0.43308 0.43392 0.434759
0.435594 0.436434 0.437274 0.438114 0.438954 0.439793 0.440633 0.441473 0.442313 0.443152
0.443987 0.444826 0.445666 0.446506 0.447346 0.448184 0.449024 0.449864 0.450703 0.451542
0.452377 0.453215 0.454055 0.454895 0.455734 0.456573 0.457412 0.458252 0.459091 0.459929
0.460764 0.461602 0.462441 0.463281 0.46412 0.464958 0.465797 0.466636 0.467475 0.468313
0.469147 0.469985 0.470824 0.471664 0.472502 0.47334 0.474179 0.475018 0.475857 0.476695
0.477528 0.478366 0.479205 0.480044 0.480882 0.48172 0.482558 0.483397 0.484236 0.485073
0.485906 0.486744 0.487582 0.488421 0.489259 0.490097 0.490935 0.491773 0.492612 0.493449
0.494282 0.495119 0.495957 0.496796 0.497634 0.498471 0.499309 0.500147 0.500985 0.501822
0.502655 0.503492 0.504329 0.505168 0.506005 0.506842 0.50768 0.508518 0.509356 0.510192
0.511025 0.511861 0.512699 0.513537 0.514374 0 0.000332686 0.000665382 0.000998088 0.0013308
0.00166353 0.00176261 0.00186169 0.00196077 0.00205985 0.00215889 0.00245606 0.00275324 0.00305044 0.00334764
0.00364486 0.00404115 0.00443746 0.0048338 0.00523015 0.00562653 0.00602289 0.00641928 0.00681569 0.00721212
0.00760858 0.00800488 0.0084012 0.00879755 0.00919393 0.00959033 0.00998464 0.010379 0.0107733 0.0111677
0.0115622 0.0119497 0.0123373 0.012725 0.0131127 0.0135004 0.0138956 0.0142908 0.0146861 0.0150815
0.0154769 0.0158865 0.0162962 0.0167059 0.0171157 0.0175255 0.0179223 0.0183192 0.0187161 0.0191131
0.0195101 0.0199069 0.0203038 0.0207008 0.0210978 0.021495 0.0218918 0.0222887 0.0226857 0.0230828
0.02348 0.0238767 0.0242737 0.0246707 0.0250679 0.0254651 0.0258618 0.0262587 0.0266557 0.0270529
0.0274503 0.0278468 0.0282438 0.0286409 0.0290382 0.0294358 0.0298322 0.0302292 0.0306265 0.0310241
0.0314219 0.0318184 0.0322158 0.0326136 0.0330117 0.0334102 0.0338061 0.0342034 0.0346012 0.0349994
0.0353982 0.0357941 0.0361912 0.0365886 0.036986 0.0373848 0.0375854 0.037786 0.0379864 0.0381867
0.0383875 0.038586 0.0387837 0.0389809 0.0391774 0.0393742 0.0395722 0.0397693 0.039966 0.0401625
0.0403582 0.0405334 0.0407081 0.0408837 0.0410591 0.041279 0.0413217 0.0413643 0.041407 0.0414496
0.0414923 0.0417155 0.0419403 0.0421649 0.0423893 0.0426135 0.042825 0.0430364 0.0432473 0.043458
0.0436684 0.0438733 0.0440777 0.0442805 0.0444831 0.0446857 0.0447858 0.0448859 0.0449862 0.0450865
0.0451868 0.0452858 0.0453847 0.0454837 0.0455826 0.0456815 0.0458801 0.0460787 0.0462774 0.0464761
0.0466753 0.0468749 0.0470742 0.0472735 0.0474728 0.0476722 0.0478726 0.0480721 0.0482709 0.0484698
0.0486687 0.0488679 0.0490668 0.049266 0.0494653 0.0496643 0.0498646 0.0500648 0.050265 0.0504653
0.0506656 0.0508664 0.0510674 0.0512685 0.0514698 0.0516708 0.0518712 0.0520715 0.052272 0.0524725
0.0526734 0.0528747 0.0530751 0.0532757 0.0534764 0.0536773 0.0538812 0.0540843 0.0542873 0.0544901
0.0546928 0.054897 0.0551001 0.0553031 0.0555061 0.0557091 0.0559142 0.0561183 0.0563224 0.0565266
0.0567306 0.0568307 0.0569309 0.0570312 0.0571316 0.0572321 0.0573248 0.0574176 0.0575102 0.0576027
0.0576952 0.0577948 0.0578946 0.0579944 0.0580942 0.058194 0.0582959 0.0583976 0.0584992 0.0586007
0.0587022 0.0588036 0.058905 0.0590065 0.0591079 0.0592093 0.0593105 0.0594114 0.0595123 0.059613
0.0597135 0.0598128 0.0599119 0.060011 0.0601102 0.0602093 0.0603103 0.0604112 0.060512 0.0606127
0.0607133 0.0608133 0.0609133 0.0610132 0.0611132 0.0612131 0.0613126 0.061412 0.0615113 0.0616105
0.0617096 0.0618076 0.0619055 0.0620035 0.0621014 0.0621994 0.0622964 0.0623932 0.06249 0.0625868
0.0626835 0.062781 0.0628785 0.062976 0.0630735 0.063171 0.06327 0.0633688 0.0634676 0.0635664
0.0636652 0.0638651 0.0640649 0.064265 0.0644653 0.0646659 0.0647643 0.0648629 0.0649616 0.0650604
0.0651593 0.0652589 0.0653585 0.0654581 0.0655577 0.0656572 0.065856 0.0660548 0.0662537 0.0664527
0.0666515 0.0668506 0.0670493 0.0672481 0.0674469 0.0676458 0.0678458 0.0680447 0.0682437 0.0684428
0.068642 0.0688436 0.0690441 0.0692445 0.0694451 0.0696456 0.0698473 0.0700487 0.0702503 0.070452
0.0706537 0.0708549 0.0710564 0.0712582 0.0714599 0.0716614 0.0718622 0.0720631 0.0722641 0.0724651
0.0726662 0.0727852 0.0729043 0.0730236 0.073143 0.0732632 0.0733455 0.0734278 0.0735103 0.073593
0.0736757 0.0738784 0.0740816 0.0742852 0.0744889 0.0746922 0.0748945 0.0750979 0.0753015 0.0755052
0.0757089 0.0759103 0.0761134 0.076317 0.0765206 0.0767237 0.0767688 0.0768142 0.0768596 0.0769049
0.0769508 0.0771053 0.0772595 0.0774137 0.0775679 0.0777222 0.0779251 0.0781274 0.07833 0.0785328
0.0787358 0.0789441 0.0791516 0.079359 0.0795664 0.0797738 0.0799957 0.0802164 0.0804373 0.0806586
0.0808801 0.0811024 0.081324 0.0815459 0.0817682 0.0819909 0.0821971 0.0824031 0.0826097 0.0828169
0.0830248 0.0832297 0.083435 0.0836406 0.0838465 0.0840526 0.0842593 0.0844661 0.0846733 0.0848807
0.0850885 0.085174 0.0852595 0.085345 0.0854306 0.0855208 0.0856423 0.0857639 0.0858856 0.0860072
0.0861289 0.0865413 0.0869553 0.0873721 0.0877912 0.0882122 0.0886377 0.0890643 0.0894907 0.0899168
0.0903428 0.0907688 0.0911959 0.0916228 0.0920494 0.0924758 0.0929021 0.0933292 0.0937561 0.0941828
0.0946094 0.0950357 0.0954631 0.0958905 0.0963176 0.0967446 0.0971713 0.0975989 0.0980263 0.0984536
0.0988807 0.0993074 0.0997351 0.100163 0.10059 0.101018 0.101444 0.101872 0.102299 0.102727
0.103154 0.103581 0.104008 0.104436 0.104863 0.105291 0.105718 0.106145 0.106572 0.107
0.107427 0.107874 0.108321 0.108768 0.109216 0.109663 0.110077 0.110491 0.110906 0.11132
0.111734 0.112155 0.112576 0.112997 0.113418 0.113839 0.114265 0.114691 0.115118 0.115544
0.11597 0.116396 0.116823 0.11725 0.117677 0.118104 0.118432 0.118761 0.11909 0.119419
0.119744 0.119843 0.119941 0.12004 0.120138 0.120236 0.120663 0.12109 0.121516 0.121943
0.12237 0.122796 0.123223 0.123649 0.124076 0.124502 0.124929 0.125355 0.125782 0.126208
0.126634 0.127061 0.127487 0.127913 0.128339 0.128766 0.129058 0.12935 0.129641 0.129933
0.130227 0.130361 0.130495 0.130629 0.130763 0.130897 0.131323 0.131749 0.132175 0.132601
0.133027 0.133453 0.133879 0.134305 0.134731 0.135157 0.135583 0.136009 0.136435 0.136861
0.137287 0.137713 0.138138 0.138564 0.13899 0.139415 0.139842 0.140267 0.140693 0.141118
0.141544 0.14197 0.142395 0.142821 0.143246 0.143672 0.144098 0.144523 0.144949 0.145374
0.145799 0.146225 0.14665 0.147076 0.147501 0.147926 0.148352 0.148777 0.149202 0.149628
0.150053 0.150478 0.150903 0.151329 0.151754 0.152179 0.152604 0.153029 0.153454 0.153879
0.154304 0.15473 0.155155 0.15558 0.156004 0.156429 0.156855 0.15728 0.157705 0.158129
0.158554 0.15898 0.159404 0.159829 0.160254 0.160678 0.161104 0.161528 0.161953 0.162378
0.162802 0.163228 0.163652 0.164077 0.164501 0.164925 0.165351 0.165776 0.1662 0.166624
0.167049 0.167474 0.167898 0.168323 0.168747 0.169171 0.169597 0.170021 0.170445 0.17087
0.171294 0.171719 0.172143 0.172568 0.172992 0.173416 0.173841 0.174265 0.17469 0.175114
0.175538 0.175963 0.176387 0.176811 0.177235 0.177659 0.178084 0.178508 0.178932 0.179356
0.17978 0.180205 0.180629 0.181053 0.181477 0.181901 0.182326 0.18275 0.183174 0.183598
0.184022 0.184447 0.18487 0.185294 0.185718 0.186142 0.186567 0.186991 0.187415 0.187839
0.188263 0.188688 0.189112 0.189536 0.18996 0.190384 0.19081 0.191234 0.191658 0.192082
0.192507 0.192932 0.193356 0.193781 0.194205 0.194629 0.195054 0.195479 0.195903 0.196328
0.196753 0.197177 0.197602 0.198027 0.198452 0.198876 0.198913 0.198949 0.198986 0.199022
0.199059 0.199447 0.199835 0.200223 0.200612 0.201 0.201425 0.201849 0.202273 0.202698
0.203122 0.203547 0.203971 0.204395 0.204819 0.205243 0.205668 0.206092 0.206516 0.206939
0.207363 0.207788 0.208211 0.208635 0.209058 0.209482 0.209906 0.21033 0.210753 0.211176
0.2116 0.212024 0.212447 0.21287 0.213293 0.213716 0.214141 0.214564 0.214986 0.215409
0.215832 0.216256 0.216679 0.217101 0.217524 0.217946 0.218371 0.218793 0.219215 0.219638
0.22006 0.220484 0.220907 0.221329 0.221751 0.222173 0.222597 0.223019 0.223441 0.223863
0.224285 0.224709 0.225131 0.225552 0.225974 0.226396 0.226819 0.227241 0.227663 0.228084
0.228506 0.22893 0.229351 0.229772 0.230194 0.230615 0.231039 0.23146 0.231881 0.232303
0.232724 0.233148 0.233569 0.23399 0.234411 0.234833 0.235256 0.235677 0.236098 0.236519
0.23694 0.237364 0.237785 0.238206 0.238627 0.239048 0.239472 0.239893 0.240314 0.240735
0.241156 0.241579 0.242 0.242421 0.242842 0.243263 0.243686 0.244107 0.244528 0.244949
0.245369 0.245793 0.246214 0.246634 0.247055 0.247476 0.247899 0.24832 0.24874 0.249161
0.249582 0.250005 0.250426 0.250846 0.251267 0.251687 0.25211 0.252531 0.252951 0.253372
0.253792 0.254216 0.254636 0.255057 0.255477 0.255898 0.256321 0.256741 0.257161 0.257582
0.258002 0.258425 0.258846 0.259266 0.259686 0.260107 0.26053 0.26095 0.26137 0.261791
0.262211 0.262634 0.263054 0.263475 0.263895 0.264315 0.264738 0.265158 0.265578 0.265998
0.266419 0.266842 0.267262 0.267682 0.268102 0.268522 0.268945 0.269365 0.269785 0.270205
0.270626 0.271048 0.271469 0.271889 0.272309 0.272729 0.273151 0.273572 0.273992 0.274411
0.274832 0.275254 0.275675 0.276095 0.276514 0.276935 0.277357 0.277777 0.278197 0.278617
0.279037 0.27946 0.27988 0.2803 0.280719 0.281139 0.281562 0.281982 0.282402 0.282821
0.283241 0.283664 0.284084 0.284504 0.284923 0.285344 0.285766 0.286186 0.286605 0.287025
0.287445 0.287867 0.288288 0.288707 0.289127 0.289547 0.289969 0.290389 0.290808 0.291228
0.291648 0.29207 0.29249 0.29291 0.29333 0.293749 0.294171 0.294591 0.295011 0.29543
0.29585 0.296272 0.296692 0.297112 0.297531 0.297951 0.298373 0.298793 0.299212 0.299632
0.300052 0.300474 0.300894 0.301313 0.301733 0.302153 0.302574 0.302994 0.303413 0.303833
0.304253 0.304675 0.305094 0.305514 0.305933 0.306353 0.306774 0.307194 0.307614 0.308033
0.308453 0.308875 0.309294 0.309714 0.310133 0.310553 0.310974 0.311394 0.311813 0.312233
0.312652 0.313074 0.313494 0.313913 0.314332 0.314752 0.315173 0.315593 0.316012 0.316432
0.316851 0.317273 0.317693 0.318112 0.318531 0.318951 0.319372 0.319792 0.320211 0.32063
0.32105 0.321471 0.321891 0.32231 0.322729 0.323149 0.32357 0.323989 0.324409 0.324828
0.325247 0.325669 0.326088 0.326507 0.326927 0.327346 0.327767 0.328187 0.328606 0.329025
0.329444 0.329865 0.330284 0.330703 0.331122 0.331542 0.331963 0.332382 0.332801 0.33322
0.33364 0.334061 0.334481 0.3349 0.335319 0.335738 0.336159 0.336579 0.336998 0.337417
0.337836 0.338257 0.338677 0.339096 0.339515 0.339934 0.340355 0.340774 0.341193 0.341612
0.342032 0.342452 0.342872 0.343291 0.34371 0.344129 0.34455 0.344969 0.345388 0.345807
0.346227 0.346647 0.347067 0.347486 0.347905 0.348324 0.348744 0.349164 0.349583 0.350001
0.350421 0.350842 0.351261 0.35168 0.352099 0.352518 0.352938 0.353358 0.353777 0.354195
0.354615 0.355035 0.355455 0.355874 0.356292 0.356712 0.357132 0.357551 0.35797 0.358389
0.358808 0.359229 0.359648 0.360067 0.360485 0.360905 0.361325 0.361744 0.362163 0.362582
0.363001 0.363421 0.363841 0.364259 0.364678 0.365097 0.365517 0.365937 0.366355 0.366774
0.367193 0.367614 0.368033 0.368452 0.368871 0.36929 0.36971 0.370129 0.370548 0.370967
0.371386 0.371806 0.372225 0.372644 0.373063 0.373482 0.373902 0.374321 0.37474 0.375159
0.375578 0.375998 0.376417 0.376836 0.377255 0.377674 0.378094 0.378513 0.378932 0.379351
0.37977 0.38019 0.380609 0.381028 0.381447 0.381866 0.382286 0.382705 0.383124 0.383543
0.383962 0.384382 0.384801 0.38522 0.385639 0.386058 0.386478 0.386897 0.387316 0.387735
0.388154 0.388573 0.388992 0.389411 0.38983 0.390249 0.390669 0.391088 0.391507 0.391926
0.392345 0.392765 0.393184 0.393603 0.394022 0.394441 0.39486 0.395279 0.395698 0.396117
0.396536 0.396956 0.397375 0.397794 0.398213 0.398632 0.399051 0.39947 0.399889 0.400308
0.400727 0.401147 0.401565 0.401984 0.402403 0.402822 0.403242 0.403661 0.40408 0.404499
0.404917 0.405337 0.405756 0.406175 0.406594 0.407013 0.407432 0.407851 0.40827 0.408689