# vtk DataFile Version 2.0
sampleSurface
ASCII
DATASET POLYDATA
POINTS 22238 float
-0.0759496 0 -0.016272 -0.0801798 0 -0.0125348 -0.0818345 0 -0.0180453 -0.086997 0
-0.0189531 -0.0886285 0 -0.0137738 -0.0986804 0 -0.0154177 -0.0990586 8.67362e-19 -0.019469
-0.0987498 0 -0.0229307 -0.10251 0 -0.0193177 0.156071 0 0.03163 0.160128
0 0.027637 0.160269 8.67362e-19 0.0319311 0.160168 0 0.0358162 0.164212 0
0.0315376 -0.167313 -1.30104e-18 -0.0372618 -0.171713 4.33681e-19 -0.0328801 -0.17313 -1.30104e-18 -0.03712
-0.17831 -8.67362e-19 -0.0419082 -0.179588 4.33681e-19 -0.0377659 -0.18062 0 -0.0334666 -0.181174
4.33681e-19 -0.0411754 -0.180797 -8.67362e-19 -0.0447601 -0.183563 0 -0.0416301 -0.184665 8.67362e-19
-0.0366363 0.192075 0 0.0404984 0.192558 0 0.0399856 0.192709 -1.19262e-18 0.0405236
0.19988 0 0.0378965 0.199059 0 0.0420645 -0.200181 1.30104e-18 -0.0427786 -0.203488
0 -0.0391938 0.205097 0 0.0384339 0.205183 0 0.0414944 -0.204607 0
-0.0486006 0.205299 0 0.0457362 -0.205716 4.33681e-19 -0.0441846 -0.180639 0 -0.114662
0.211387 0 0.0432967 0.211896 0 0.0408855 -0.211753 2.1684e-19 -0.0429131 -0.184831
0 -0.111914 -0.211543 -6.50521e-19 -0.0451321 -0.183709 0 -0.1177 -0.185634 0
-0.114779 -0.213654 0 -0.0449474 -0.213259 -6.50521e-19 -0.0478512 -0.194589 0 -0.101253
0.215313 -8.67362e-19 0.0429458 -0.189371 0 -0.112926 0.215541 0 0.0465626 -0.199087
0 -0.0957723 -0.201636 0 -0.0908613 0.216504 1.0842e-19 0.046707 -0.193912 0
-0.107042 -0.1888 0 -0.116909 -0.192238 0 -0.112256 -0.19768 0 -0.105624
-0.203189 0 -0.095115 -0.199986 -8.67362e-19 -0.101942 -0.202014 0 -0.101226 -0.205341
0 -0.0947909 0.225228 4.33681e-19 0.0435332 0.224462 0 0.0476253 0.224391 -1.0842e-18
0.0526514 -0.12155 0 -0.195909 -0.11766 4.33681e-19 -0.199464 0.226353 -8.67362e-19 0.0515387
0.226548 2.1684e-19 0.0548237 -0.113274 4.33681e-19 -0.204788 0.229357 0 0.0466058 0.228645
2.1684e-19 0.0522271 -0.124758 0 -0.198677 -0.121633 0 -0.20085 -0.109187 0
-0.208337 -0.119326 -2.1684e-19 -0.20395 -0.117114 0 -0.206574 -0.115222 0 -0.208465
-0.112622 4.33681e-19 -0.211747 -0.213946 -8.67362e-19 -0.124578 -0.217702 4.33681e-19 -0.120614 -0.213146
0 -0.131516 -0.217851 0 -0.124725 -0.215401 4.33681e-19 -0.130942 0.24627 4.33681e-19
0.0540565 -0.214975 0 -0.133555 -0.223636 -4.33681e-19 -0.119206 -0.222925 -4.33681e-19 -0.12208
0.251136 8.67362e-19 0.049653 0.250867 4.33681e-19 0.0543864 -0.226245 0 -0.121382 0.259398
8.67362e-19 0.0511341 0.258549 -4.33681e-19 0.0553658 -0.126923 8.67362e-19 -0.232222 -0.129471 -2.1684e-19
-0.231524 -0.128591 4.33681e-19 -0.234192 0.263448 0 0.0535891 -0.268864 0 -0.0103095
-0.273177 8.67362e-19 -0.0088316 -0.273607 0 -0.0125036 -0.27814 4.33681e-19 -0.006503 -0.279081
4.33681e-19 -0.00444967 -0.27912 0 0.000330643 -0.28357 -4.33681e-19 0.00148877 -0.283819 0
-0.00405313 -0.284517 -4.33681e-19 -0.000603923 -0.289483 -1.0842e-19 0.00573934 -0.2904 0 0.00184859
-0.290401 1.0842e-19 0.00178372 -0.290459 0 0.0018405 -0.29075 -1.0842e-19 0.00635915 -0.290781
0 0.00723505 -0.291706 8.67362e-19 0.00636432 -0.0387295 8.67362e-19 -0.337524 0.0844836 0
-0.329813 0.0845251 7.04731e-19 -0.329913 -0.328774 -3.25261e-19 -0.0893431 -0.329018 1.0842e-19 -0.0891829
-0.0275617 -4.33681e-19 -0.339779 -0.329198 1.6263e-19 -0.0890484 -0.0392238 1.73472e-18 -0.341289 0.217808
4.33681e-19 0.266462 -0.291133 0 -0.183769 0.0900713 -4.33681e-19 0.332411 0.270539 0
0.213121 0.333842 -2.1684e-19 -0.0851677 0.143385 8.67362e-19 -0.313314 0.313684 0 -0.142601
-0.195456 0 0.283837 -0.332302 -8.67362e-19 0.0917895 0.344789 0 0.00273856 -0.212433
0 -0.271686 -0.283179 -4.33681e-19 0.196925 0.242671 5.14996e-19 -0.24513 0.242815 0
-0.244997 -0.316079 -4.33681e-19 0.13819 0.344977 1.19262e-18 0.00250281 0.227026 4.33681e-19 0.259765
0.334346 0 -0.0850488 -0.325471 -4.33681e-19 0.114413 0.242842 0 -0.245111 -0.0433355
4.33681e-19 -0.342471 -0.00352352 4.33681e-19 -0.345185 0.263992 4.33681e-19 0.222544 -0.0271571 0
-0.344299 0.090384 0 0.333405 0.223246 -4.33681e-19 0.26361 0.105943 8.67362e-19 0.32885
0.152041 -4.33681e-19 0.310299 0.135241 4.33681e-19 0.318062 0.089116 1.0842e-19 0.334036 0.267757
8.67362e-19 0.218777 -0.29499 -8.67362e-19 -0.180459 0.214243 0 0.271465 0.160591 4.33681e-19
-0.306313 0.234473 0 -0.254271 0.275272 4.33681e-19 0.209452 -0.1724 0 0.299911
-0.191436 4.33681e-19 0.288157 0.330652 -4.33681e-19 -0.101854 -0.342257 0 -0.0507284 0.306677
0 -0.160282 -0.297861 -4.33681e-19 -0.176206 0.298222 0 -0.175681 -0.0444166 0
-0.343297 -0.176067 -2.1684e-19 -0.298038 0.244149 -1.35525e-20 -0.245448 -0.113509 4.33681e-19 0.327074
-0.278581 4.33681e-19 -0.205602 0.329489 4.33681e-19 0.106507 -0.153981 0 0.310247 0.300228
2.03288e-19 0.172893 0.0910959 0 0.334267 -0.309103 4.33681e-19 0.156535 -0.31939 0
0.134346 0.300185 -3.65918e-19 0.173065 0.300246 -2.71051e-20 0.172969 -0.174371 -4.33681e-19 -0.299435
-0.301099 -2.1684e-19 0.17157 0.255576 -4.33681e-19 -0.234136 0.290428 0 0.189196 0.143397
0 0.315568 -0.0903321 0 0.334719 0.246106 6.77626e-21 -0.244202 0.110996 -4.33681e-19
0.328472 0.246146 0 -0.244219 0.246185 -4.87891e-19 -0.24418 0.0910448 0 0.334599
0.101986 -8.67362e-19 0.33145 0.0914611 -1.0842e-19 0.334545 -0.313877 -8.67362e-19 0.147568 -0.267055
-8.67362e-19 0.221312 0.139682 0 -0.317481 -0.209154 -4.33681e-19 -0.276752 -0.150258 -2.1684e-19
0.312672 -0.0950638 4.33681e-19 0.333664 0.205712 -8.67362e-19 0.279399 -0.288064 0 0.193395
-0.318145 0 -0.138488 -0.277303 0 0.20859 0.192305 -4.33681e-19 -0.288852 -0.145749
4.33681e-19 0.314921 0.246295 6.77626e-21 -0.24446 0.283206 -2.1684e-19 0.200597 -0.20037 4.33681e-19
-0.28339 0.180613 0 0.296383 -0.280271 -4.33681e-19 0.204735 0.147977 -8.67362e-19 0.313984
-0.137429 8.67362e-19 -0.318751 -0.182698 4.33681e-19 0.295151 0.217981 0 0.270165 0.135151
8.67362e-19 -0.319751 0.16118 0 0.307468 -0.311599 0 0.153049 0.222509 -4.33681e-19
-0.26649 -0.29462 4.33681e-19 0.183687 -0.195105 0 0.287216 0.119203 0 0.326136
0.183992 0 -0.294486 0.301479 -2.1684e-19 0.172326 0.308312 0 0.159811 0.274187
1.73472e-18 0.213115 0.29577 0 -0.182004 0.267042 -4.33681e-19 -0.222026 0.28632 -4.33681e-19
0.196562 0.188457 4.33681e-19 -0.291765 -0.0239675 0 -0.346525 0.338671 -8.67362e-19 -0.0771956
0.274547 0 -0.212892 -0.126213 -2.1684e-19 -0.323685 0.213518 4.33681e-19 -0.274067 0.320379
8.67362e-19 -0.134399 0.125333 0 -0.324037 -0.110241 0 0.329488 0.318421 -4.33681e-19
-0.139076 0.20938 0 0.277307 0.28091 -4.33681e-19 0.20458 -0.14591 0 -0.315404
-0.174954 -2.71051e-19 -0.300306 0.109963 -8.67362e-19 0.329711 -0.186635 -4.33681e-19 0.293211 -0.274801
4.33681e-19 0.212827 -0.271126 -4.33681e-19 0.217562 0.325031 -4.33681e-19 -0.12331 -0.203416 4.33681e-19
0.281912 -0.286697 0 0.196645 -0.174985 0 -0.300414 -0.313706 -2.1684e-19 -0.149865
-0.0947423 4.33681e-19 0.334517 0.302174 2.1684e-19 0.172094 0.324287 2.1684e-19 -0.125579 -0.170577
2.1684e-19 0.303047 -0.191527 0 -0.29029 -0.172479 -8.67362e-19 0.302015 -0.220283 0
-0.269147 -0.344524 -4.33681e-19 -0.0478141 0.294546 0 0.185004 -0.175934 0 -0.300056
-0.302414 -8.67362e-19 0.17186 0.231764 4.33681e-19 -0.259383 -0.303015 0 0.170857 0.292631
-8.67362e-19 0.188125 -0.144051 6.50521e-19 -0.31667 -0.0381626 4.33681e-19 0.3458 0.226297 0
-0.26426 -0.212379 0 -0.275578 -0.347928 0 0.000630538 -0.246218 4.33681e-19 -0.245887
-0.204443 -4.33681e-19 -0.281585 -0.317947 -1.30104e-18 -0.141527 -0.283486 -4.33681e-19 0.201938 -0.199883
8.67362e-19 0.284946 -0.342859 -4.33681e-19 -0.059975 0.173028 2.74439e-19 0.302018 0.17303 8.47033e-22
0.302025 0.173021 0 0.30203 -0.129061 2.1684e-19 -0.323274 -0.316396 0 -0.145141
-0.318381 2.1684e-19 -0.140767 -0.179094 4.33681e-19 -0.298515 0.31928 0 0.138736 -0.292729
-4.33681e-19 0.188413 0.273061 -4.33681e-19 0.21597 0.220981 -4.33681e-19 0.26904 -0.175517 0
-0.30068 -0.175259 -2.60886e-19 0.300841 -0.175255 0 0.300852 -0.0996192 4.33681e-19 -0.333738
0.336988 -6.50521e-19 -0.0880153 -0.128341 4.33681e-19 -0.323862 0.325139 0 -0.125128 -0.136761
-3.25261e-19 0.320428 0.203656 0 -0.28269 -0.0881559 4.33681e-19 0.337078 -0.248354 -4.33681e-19
-0.244364 -0.145591 -6.50521e-19 -0.316562 -0.345253 -1.69407e-21 0.0470233 -0.345264 -1.69407e-21 0.047011
-0.345265 -1.2282e-18 0.0470229 -0.345263 0 0.0470433 -0.345268 -1.69407e-21 0.0470176 -0.105126
-4.33681e-19 -0.332247 -0.31971 -2.1684e-19 -0.13866 -0.348462 -4.33681e-19 0.00405013 0.323956 0
-0.128483 -0.277197 0 -0.211233 0.307563 8.67362e-19 0.163934 -0.216494 0 -0.273137
-0.334901 -1.30104e-18 0.0965158 -0.0372479 0 0.346537 -0.295909 1.73472e-18 -0.184175 -0.12064
2.1684e-19 -0.327007 0.260426 -8.67362e-19 -0.231686 -0.12693 2.1684e-19 -0.324642 -0.327896 -1.0842e-19
-0.118312 0.124398 0 -0.325637 0.0434384 -1.0842e-19 0.345912 0.265365 -4.33681e-19 -0.226107
-0.090571 0 0.336674 0.325943 2.1684e-19 -0.123753 -0.328417 0 -0.117048 -0.135918
1.0842e-19 0.321069 0.17685 -2.1684e-19 -0.300474 -0.118471 2.1684e-19 -0.327916 0.0427338 -1.0842e-19
0.346057 0.337015 0 -0.089467 -0.345014 -2.1684e-18 -0.0505396 0.283421 -4.33681e-19 -0.203131
-0.314491 2.1684e-19 -0.150616 0.348701 2.1684e-19 0.000927602 0.341291 0 0.0715246 0.316346
-1.0842e-19 0.14673 0.300162 -4.33681e-19 -0.17751 -0.336389 0 0.0919646 -0.0393961 2.1684e-19
0.346505 -0.317956 -4.33681e-19 0.143273 -0.153913 4.33681e-19 0.312946 0.10297 -4.33681e-19 -0.3332
-0.136551 0 0.320907 -0.0381103 1.0842e-18 0.346669 0.125346 -2.1684e-19 -0.325455 0.302028
0 -0.174402 0.0433648 -1.0842e-18 0.346063 0.282843 -4.33681e-19 0.204086 -0.293764 0
-0.188029 0.312335 0 0.155288 -0.278992 0 -0.209388 0.0778961 0 -0.340018
0.341809 0 0.0696207 0.31688 1.0842e-19 0.145852 -0.186081 -4.33681e-19 0.295085 -0.336204
-4.33681e-19 0.0931152 0.279249 -4.33681e-19 -0.209112 -0.328273 0 -0.118098 -0.302472 4.33681e-19
-0.173858 -0.0377533 1.0842e-19 0.346836 0.209819 0 -0.278741 0.175769 2.1684e-19 -0.301373
0.199389 -8.67362e-19 -0.286308 0.208816 -8.67362e-19 0.279509 -0.147635 -2.1684e-19 0.316123 -0.157422
[...]
POINT_DATA 22238
FIELD attributes 2
p 1 22238 float
15.08 21.0948 19.354 27.2558 24.9875 7.41292 7.81239 6.59746 -1.33364 -2.24772 2.42649
2.79384 6.66534 2.41081 7.25554 12.898 9.96275 -0.304863 -11.4557 -9.96242 -6.13008
-4.31915 -10.8051 -15.9989 -9.15396 -8.30472 -8.0868 -2.33263 -5.82785 12.5074 15.474
6.58187 6.55949 12.4426 6.20294 14.2388 3.14939 15.0793 13.2726 -12.5405 5.54531
-11.5091 9.47846 6.16041 -14.2479 -15.8637 17.5051 13.2769 6.82798 15.4941 10.8232
3.88944 15.5024 13.3268 4.17373 -6.14708 -8.26607 3.06391 1.06002 -4.76505 -5.26511
13.0505 14.4509 6.10711 22.9339 22.8379 7.08689 7.85609 20.0728 7.27868 8.16201
4.77602 17.9743 8.54955 1.29017 0.106831 11.4611 12.3381 31.062 32.5735 33.136
33.8794 30.5981 -12.7419 31.0927 9.90738 11.0006 -6.38285 -5.03289 5.06296 8.47008
8.08078 18.8221 14.4228 16.1539 9.83073 23.8233 27.2715 25.117 25.9869 37.6882
31.4283 38.4738 22.7178 29.6396 12.9065 -1.29612 -1.34938 -1.48659 7.01938 6.50726
3.48904 -2.94048 -18.6746 -18.3752 27.6795 30.2778 17.329 30.295 -5.05366 -15.5216
1.1412 -12.7056 -32.309 -57.7207 -8.79247 -29.3941 -4.46456 6.55559 -25.9102 -4.1719
13.5323 -10.6936 -10.5261 11.9719 -25.3083 -8.10156 -52.7618 11.7138 -10.2762 -16.5971
-13.6301 -28.2733 16.3473 -12.7283 -19.1893 -8.57294 -12.2748 -16.545 -14.4864 -23.5978
7.78786 -21.7222 -19.7927 -18.3426 -31.2308 7.52936 5.46167 -29.8413 28.6147 -31.6167
5.99276 -26.6935 -11.7479 7.86916 -8.05663 2.62266 5.22123 -26.5438 -1.98763 -20.7533
11.5921 29.9954 16.8054 -21.0417 -20.4383 12.0305 24.9284 -17.3573 -52.7592 -9.13397
3.16042 -9.28166 -9.68443 -9.18505 -9.27062 11.6215 5.78846 11.2552 39.3769 10.7211
-15.662 8.15885 11.7687 -9.23815 -20.211 22.3349 41.372 30.8374 -12.0105 16.3478
-8.43838 -31.6339 12.7896 -14.8027 38.9113 -16.6503 15.3296 9.82675 -12.1601 -9.67381
-7.75942 37.3053 -24.3263 30.3291 2.08633 -6.26187 -16.3937 -19.9269 -18.1326 -19.2782
-23.9258 -22.0141 -40.3476 -18.3133 10.3647 -70.7737 -13.9942 3.26436 -18.1868 -27.8789
-23.9836 6.03249 -29.454 -19.2185 -25.3986 5.44232 16.561 -10.2588 10.1387 31.0816
24.1243 -27.9048 2.07977 21.6036 16.7748 52.2337 -7.4228 -17.6987 -31.7842 11.2541
6.25809 12.5218 2.64284 38.3491 -46.0473 12.1162 31.9736 -21.8712 31.8928 -34.7229
6.98223 3.26805 -22.0092 3.55056 31.0112 24.7003 13.6606 42.3311 40.5283 3.79738
37.789 -9.63411 -9.62974 -9.62809 5.52068 58.3865 45.0117 10.8982 -18.2409 27.4886
-23.8222 -6.23382 16.4391 9.26414 9.28322 1.47007 -40.6245 4.86207 -28.8058 7.97829
-29.1163 3.63157 21.0342 7.7815 61.5935 61.6407 61.686 61.7179 61.7146 -3.6323
44.7817 37.495 -29.8 12.6973 -24.8946 6.39592 26.1225 4.0057 19.9373 7.63054
-19.3233 4.6534 46.4679 -24.5374 -10.0087 -23.2932 3.70558 -22.631 49.5889 6.14033
-24.9972 8.71018 -10.2929 -36.1845 42.9582 -31.8777 63.6049 -29.6145 -31.408 -29.4662
-25.1921 22.0752 0.797831 41.4771 1.30166 -16.629 7.48934 3.39955 -23.0163 -25.8891
-9.8951 -15.6746 31.3429 -12.3918 14.808 -59.6636 -27.2581 -29.1522 9.62932 26.3063
-11.1727 49.3686 10.3363 4.4947 -18.6084 -25.2836 -31.0254 -14.0416 11.8276 2.1277
7.16153 26.9244 45.6726 -15.9696 20.1423 -16.5199 -24.981 -25.3165 24.9398 -20.4684
-10.5852 -21.6376 -27.5152 14.9735 40.6305 0.880308 48.2953 -36.2087 12.7726 -21.8509
27.3949 22.4023 -10.3818 -28.4188 40.4445 -12.9126 -21.8973 44.6787 -17.6873 53.0753
11.6035 25.7831 -0.196621 -6.90634 45.4074 41.1435 64.9059 15.3149 24.9427 -30.3385
39.9152 -14.3384 -45.3387 5.49744 46.2219 -19.3892 -26.3948 -23.5562 39.5625 -21.3179
18.4905 -13.037 -29.7906 43.6411 5.31756 38.4711 30.8345 32.0909 32.0085 34.6069
-23.0859 -10.9833 -10.5489 10.4347 2.25955 7.99915 -13.7126 9.2295 -4.7289 49.8853
49.545 34.7806 46.8815 -21.0434 -18.285 0.465471 -0.297741 -13.3777 -11.573 -27.4672
20.1167 -13.0676 -17.2637 -46.0132 -21.545 -35.0113 46.819 -30.0791 -26.5365 -26.6774
2.88825 -30.4893 -14.7289 -13.7195 -4.14652 -6.94863 -35.3752 10.9812 45.5967 -4.58925
37.4864 -32.3952 28.4928 -19.6121 46.4275 10.98 -22.8377 18.3818 -12.1515 4.81732
-6.90582 -9.62004 14.1452 -49.6762 28.6272 54.2499 -10.2735 -22.6776 25.282 -29.566
-41.4627 23.9615 -1.85288 18.624 -29.0933 -23.5447 -13.3715 46.9575 -22.5779 -16.4553
-31.3505 -6.01376 -54.2481 27.4252 -31.9487 4.47173 -24.5536 4.92576 -11.457 24.1757
51.1253 20.5843 -34.2462 -7.3615 -21.1199 17.7694 18.9285 -0.352693 -59.5725 -22.927
24.2605 -1.87986 22.9076 -21.1107 31.2265 30.1906 -34.4175 29.5003 -31.233 -9.3274
-40.7313 -33.3162 -8.73553 47.3703 -33.6898 -25.7358 10.9401 41.6354 -18.9752 19.1798
-27.3374 -18.721 18.7218 -33.8607 13.5754 -6.78695 -24.6524 -22.1326 23.0087 36.4537
-39.5572 16.2105 6.16283 -5.61559 -42.7949 41.3357 -31.981 -40.6024 36.2399 19.9833
-12.0878 33.8203 -11.9743 38.7012 -8.51083 -11.889 -23.0482 -32.7229 -25.5032 -21.0458
-26.8011 -31.4054 30.453 39.6944 -20.8958 -33.1058 13.4069 -34.4291 -28.1271 29.3272
-11.4938 -29.5681 -13.1373 13.9925 -25.0897 7.39362 -9.22684 -10.9786 -12.5727 41.3905
-24.269 -15.1454 29.9987 -37.8146 -2.32739 -18.1439 42.9432 27.8991 35.6307 11.8069
38.0727 -21.8326 -12.6414 -23.7168 -22.8626 39.1968 -18.765 23.9324 -31.3682 9.81798
-41.0955 -16.5696 42.7536 -25.6088 -0.945576 -9.80009 -36.4648 75.4643 -7.72081 -9.68539
-30.0062 -16.5763 -16.3263 54.8706 66.2671 -24.3273 68.299 -25.6584 39.8407 -8.99903
4.43866 -19.0537 37.7046 -7.22346 11.0297 40.395 9.57922 0.0567055 -29.9125 -45.1589
77.2741 -7.54709 15.0583 -11.1696 41.3288 -22.0876 -32.5737 -37.4921 60.4478 77.2477
-42.7057 -12.5842 79.2037 59.7089 -2.73232 79.9875 80.2432 -15.2184 -15.4217 -9.38773
71.728 -0.866616 -11.1507 80.1698 -11.1559 -11.5089 -24.8511 -2.03787 -19.9552 -2.07993
4.79796 -15.4943 -21.4048 35.4508 -11.2514 73.8111 -37.3375 -23.0266 -15.1188 -12.0345
68.341 -2.02249 67.8067 -22.9819 25.6005 45.9024 -54.0535 67.5229 -7.13214 40.3771
-21.5991 -14.3848 -15.2661 -21.3581 -12.5242 -35.378 71.4801 -22.8804 3.68237 -34.0418
45.1983 4.01458 -13.1763 -14.8673 -17.9759 -43.1292 -17.2937 6.25353 -15.2206 4.37365
-20.2064 -8.2455 -34.5082 -15.5713 -8.77026 -3.94195 -15.4836 -39.863 63.8068 -22.6054
63.755 8.5131 3.15911 -8.356 22.7314 31.7908 7.29818 72.7293 17.891 -9.30908
17.6491 -25.5027 21.8285 -19.7255 -0.795228 26.6144 -1.87042 27.0613 -32.9292 43.3421
-15.9768 -16.2854 -22.6028 -0.330056 -20.8438 -8.79793 -14.5356 -28.7125 10.2895 18.9558
25.3402 -6.96924 -0.327039 15.381 7.64849 73.2596 7.98511 -24.0643 -25.4804 41.6179
-23.3822 -7.65828 4.4868 -26.5127 3.79442 56.2707 -34.9689 3.9366 11.8307 -2.88994
8.5852 7.45991 -10.9907 26.9631 10.9231 -18.4869 66.6193 -4.69071 -13.6929 -23.2354
-17.0632 -5.88933 -15.2479 -20.2774 -11.1168 17.3509 45.6763 -11.81 -17.2751 40.9235
-18.142 47.2649 -17.1508 76.784 0.52014 45.6529 -20.2288 39.3366 41.289 13.6175
-20.4916 -11.4871 -12.1059 -4.88773 -9.75651 -22.0825 14.0126 39.8018 39.0791 -20.7458
50.3197 -1.62932 43.5545 1.7561 29.3801 -16.0915 -8.07605 -22.9511 50.5633 44.7844
64.2106 -2.03161 -6.50663 -27.6042 -7.58155 34.7042 -21.6474 -24.8116 -17.503 28.4699
-15.9607 53.8442 -8.29849 -16.5895 51.5887 -16.1855 -24.285 -34.0442 -1.55144 -21.9242
-13.0368 1.28686 48.4077 34.2928 -11.6321 -33.1022 -10.598 59.9587 -7.46274 6.31422
-4.28466 -14.5348 -5.86421 -4.25386 -6.18366 42.7445 43.5299 -10.7373 11.4812 22.0969
-6.43572 -14.5336 -34.7454 37.0144 -5.90736 31.12 0.164663 14.3261 7.61662 31.298
32.8259 30.4126 1.7372 27.7472 -8.69367 8.52525 41.7364 -14.9484 -4.36042 -13.1801
-6.31451 5.04742 14.5612 0.893105 39.2408 -7.56417 -6.42246 31.1458 -13.8629 5.2794
13.647 -12.6866 65.5756 -9.50698 -8.40384 2.25448 -19.259 -18.6665 2.64447 -17.3366
-11.0414 -26.6487 -21.3278 -24.4566 13.3233 11.8194 39.1942 -13.7347 -11.473 -21.78
-18.6846 -19.6596 -20.664 1.51712 -19.0502 -26.2298 2.81005 -6.25805 8.39393 -18.7735
5.31698 -24.2781 12.9921 -10.5948 -21.5314 1.78502 54.9745 -15.5246 31.7272 -4.43761
5.88886 -5.15495 -18.6695 -9.67249 5.98289 47.122 5.36809 -9.05918 7.55265 -13.1917
40.9528 7.08734 -15.653 -5.92721 46.1311 48.764 6.14875 -1.42788 36.7443 -1.36484
11.0259 5.30732 -8.74637 23.5832 9.41771 -3.79128 13.1407 6.10934 40.0973 -1.71381
6.6096 7.89148 -3.35031 0.847412 6.84042 10.8648 1.75458 -4.40601 13.7526 8.01393
30.7786 36.7662 7.72915 15.5516 15.7618 -2.19935 3.81973 -9.49259 -1.06466 24.2714
-1.69416 36.4202 -15.8434 42.2797 -7.12615 13.7432 -0.120675 -13.1959 13.865 -7.03646
35.034 13.0214 8.14275 -4.67073 3.98595 8.20654 9.83205 -2.22254 15.5644 7.22258
-6.94874 9.11651 11.622 7.17518 12.6947 16.2678 -3.69432 38.5851 4.3785 -3.3808
3.50617 24.1454 13.528 11.7763 1.30838 8.84777 11.7606 5.90634 9.15766 30.9034
2.15378 9.85385 9.83032 13.0672 8.50933 9.54954 8.03926 6.2738 11.6039 5.58281
47.7147 5.38297 31.6024 12.555 13.2498 9.3356 -4.37882 -4.33898 40.7221 9.87204
-6.45984 9.95901 11.6719 21.4924 -4.37539 11.7406 27.7263 5.68244 -3.98794 10.2028
47.5256 -6.53833 20.979 24.4461 33.4239 3.17752 14.7317 18.5731 -9.31589 20.78
-6.25803 11.7004 11.4049 15.3147 5.3522 9.19544 2.36749 9.79233 49.893 5.34509
-4.06844 8.3182 33.8979 34.2619 10.8828 39.679 13.6308 2.1537 -6.04407 -4.37527
47.8319 -0.863609 10.6573 3.37016 -2.18323 18.9755 -2.08229 19.2646 -2.01621 -6.37176
6.00472 2.55246 42.6737 16.6421 2.53399 2.68058 3.06075 39.7745 39.7731 34.2876
3.44118 0.294136 4.11187 14.7915 46.4652 -3.52017 44.5512 -7.78373 32.6269 47.6406
-3.53314 -7.66013 6.40025 -7.26816 -8.27434 -2.33573 -7.18717 -3.85073 18.481 -2.3198
41.5755 -4.8995 47.6629 14.0526 -5.98178 -3.70396 14.233 7.64582 0.343754 29.614
-6.73048 -2.39803 42.1196 -2.29143 4.63142 -5.0231 29.7236 13.6312 19.5915 41.3899
3.18499 5.62799 33.9565 14.0586 6.5 16.9854 4.25327 -0.21325 1.02266 7.3665
39.785 11.5863 -4.00835 25.7675 23.1736 -0.347078 24.5016 -4.8735 13.4698 -7.09113
3.27907 19.6568 16.3301 38.2972 -3.80411 16.5331 37.0331 -5.75638 17.105 -8.29723
17.1312 29.7622 -0.284346 17.8063 -1.4986 0.905067 10.694 6.80427 21.3881 6.18397
0.345991 -4.62291 4.17609 9.84789 9.88724 28.9257 14.5185 7.89756 9.71575 10.1406
9.6446 5.36432 23.3827 5.78946 35.1716 11.716 0.29216 5.25303 -3.95391 -5.96876
-4.2864 -2.4308 6.76672 -5.53029 5.60315 6.90406 9.03152 5.28179 -2.80316 29.8443
2.91299 4.50597 -1.31062 -2.00825 4.41236 7.95198 35.7635 8.93828 10.4582 4.25564
9.06639 -0.966235 6.45488 -4.49212 25.7363 -2.28465 36.174 5.60637 2.91668 -2.38015
38.4219 23.6128 10.2677 -3.19922 28.0456 10.8889 -0.178776 1.82524 -3.9135 6.21413
-4.62848 13.1435 3.78074 15.5032 21.5424 1.04567 -6.23223 6.96865 7.54307 7.29932
21.2907 -0.0438239 -4.48 -1.77849 28.9708 -1.80389 6.69252 -13.0009 7.4491 -4.13165
8.63489 -4.52017 12.8749 8.61279 31.0918 9.73274 10.4954 9.81495 24.5876 10.023
-4.93298 -1.08356 29.8149 -6.66868 -0.203306 24.1445 10.7848 -4.70211 8.21907 24.1161
29.3595 0.672602 6.44458 35.3442 36.7877 34.5197 10.4179 7.58661 2.73162 -0.879209
24.6163 36.8247 10.8549 19.5419 37.5387 33.3759 -6.00977 -4.41416 -6.18826 -6.46878
4.19326 34.5026 -3.87191 28.0225 -5.76348 37.9391 -5.8427 -6.18688 27.9187 4.86273
2.30209 -13.1293 21.2028 -4.74534 2.5756 -5.764 32.0284 -4.22531 2.64334 30.8894
13.8784 11.6618 -3.94467 0.774077 -5.96426 3.56768 15.4293 3.74509 22.1022 1.9614
2.13828 0.609082 20.4496 -4.68621 30.0584 2.06718 14.5243 5.3608 -2.44907 7.69006
3.78627 1.34894 8.98748 -3.97613 6.37248 5.52517 18.5919 12.5674 9.25952 -5.3605
3.00372 21.9816 -0.560071 -2.85539 1.68291 26.3614 -5.39263 4.67794 22.4725 15.2061
-1.65704 28.0841 -4.02966 1.63261 9.00197 1.53762 5.41639 -3.89222 -1.03386 -5.23451
6.43902 2.69272 9.63483 22.0875 25.8815 1.31595 -4.99748 -11.217 6.18595 -1.85923
6.29813 15.5122 4.5497 6.92993 -2.28623 18.6559 -3.7914 3.33128 -5.07314 1.12864
17.7397 4.1631 -4.82729 3.60778 3.45243 2.85269 -3.76093 3.40598 27.2398 -11.1976
18.9521 25.1435 1.57087 16.8538 2.39256 3.67017 24.1236 3.53915 5.94726 -4.39755
-5.38793 18.7383 5.74502 4.72976 2.14117 5.09446 0.946887 7.39865 6.12918 -3.01056
8.33969 -2.27412 7.95885 2.49871 6.32888 4.66397 4.48723 -0.920052 20.4705 26.0919
0.816538 -4.8056 0.478224 18.8321 2.7849 2.78868 24.2353 4.14507 4.13936 8.39926
4.45057 5.96753 10.1581 16.014 23.1759 -4.28143 -0.00634923 -6.98088 20.0516 23.2427
2.40236 -4.29524 -1.77696 -2.21921 16.1433 -4.72998 -1.57878 8.21095 3.4984 -3.92171
15.253 5.22181 8.46523 -3.57634 6.01384 -1.35115 3.28061 2.79135 -7.12996 11.2252
12.2141 9.41584 3.59122 4.85073 20.0353 4.22432 11.3294 4.04674 11.9017 19.8226
-1.12027 16.2609 7.25741 9.38267 12.7095 -5.28888 14.7283 6.16508 0.533214 -3.31257
3.80925 2.71884 5.53406 23.393 23.0164 0.161184 4.68275 0.734724 2.6002 0.734771
15.7681 17.9063 23.4036 -3.31116 23.018 3.26875 23.0012 12.8888 -4.29039 -4.53944
1.46829 14.2731 -3.82082 7.81643 21.3856 -4.48335 21.7916 -1.69408 -3.10524 -0.246121
5.13673 0.475855 17.6488 12.82 14.907 -3.47994 -4.35517 3.86286 1.95045 -5.46442
1.00524 -4.19706 3.90699 0.474594 3.15774 -0.746904 1.05332 19.5376 3.73503 18.0972
20.7075 3.20939 13.3404 0.411364 -1.58351 5.98479 -3.03768 -0.681498 -3.45192 -1.04024
-3.83424 1.11603 2.69774 -4.76297 2.042 2.40138 -2.78915 13.6879 1.20122 2.29998
2.30828 2.28915 19.2588 15.6354 2.5648 18.1627 -3.32125 1.8405 2.54737 1.24705
3.12068 13.7355 4.30459 15.3778 12.6187 3.38377 3.87685 -2.38847 5.03963 2.35842
2.43652 5.57395 -1.89991 14.7372 8.43709 9.58313 -3.51186 13.306 3.09314 -2.5234
-0.398267 1.99184 14.9175 18.2786 3.44876 16.1057 6.89709 10.2255 18.1542 5.72573
9.05313 2.52037 8.1054 -4.92654 2.47234 17.0079 -1.36061 -3.38953 -1.82922 4.38942
-0.0442428 2.96304 -3.07678 9.84171 1.06788 11.7826 0.102027 -0.0176543 6.71882 2.04221
4.41291 -3.03277 5.1989 10.5574 -0.00247475 1.15098 0.447352 2.09415 3.55739 -4.51357
11.9799 -2.94224 15.5448 5.62183 10.6213 1.77189 1.64407 16.2366 2.2566 0.552206
-1.33691 0.58716 12.6716 4.35597 0.0854018 -0.78102 13.9524 -0.543842 1.44603 18.0496
17.8623 1.53204 4.6434 -2.65388 10.544 3.61197 0.416443 -2.02832 17.867 17.483
11.46 17.6111 -2.74626 -3.6698 -3.62104 -1.01604 -4.62612 10.956 -3.22118 16.1886
16.8131 -3.79668 14.0375 0.590329 4.56405 -1.03081 15.4354 -1.11771 -3.08516 2.27963
14.3033 -3.48495 7.21782 -0.214702 15.5889 1.27121 6.22936 8.07304 -1.83368 1.60379
1.53798 0.605117 -2.50206 -2.64805 11.5291 7.06293 10.0794 -3.53328 0.614904 -2.55763
2.21749 -3.32307 4.75238 3.01174 8.55778 3.14931 0.630071 14.5434 2.38755 1.83614
3.92209 3.93072 11.0993 4.5318 5.33432 0.0496948 11.2833 0.523084 -2.26549 9.72727
-2.16787 2.49917 8.37426 4.05004 -1.63862 -2.99267 13.0811 -0.368435 8.68493 3.59778
2.92286 2.15601 -3.55055 4.32476 13.3648 0.651382 13.6965 -2.33935 -0.420333 -1.83802
-0.637729 0.606807 9.54811 4.30118 0.96308 0.731457 9.38623 3.86488 2.2504 -2.78869
-0.727474 0.892755 -0.311612 11.8622 1.8789 9.22264 8.75672 2.25574 13.0012 -1.5273
10.7755 8.87033 -1.7601 4.88049 8.96483 4.28961 3.01888 -2.50604 8.4783 13.5656
14.3916 6.21009 -1.1633 13.5664 13.8842 13.5961 12.4084 13.6312 1.22407 3.32216
1.44295 -1.21081 11.2858 3.02221 4.62566 8.64613 -1.54492 1.30796 12.2657 1.30839
-2.38186 -0.262663 0.736799 -0.295394 10.9858 -1.42125 6.77619 12.0084 -1.57628 2.78952
3.05298 -2.17296 1.66012 -1.94276 -0.783632 10.6925 10.3876 5.08558 -1.50921 3.66785
8.21385 1.31069 -0.155574 9.25828 5.91272 -0.536966 0.734956 4.34971 10.2759 -1.10771
-0.0823902 1.70361 6.63679 -2.49199 6.53476 4.356 -2.30853 8.9314 1.90234 2.58286
-2.48917 -1.97324 -1.79555 -1.93941 7.58211 3.8663 6.41315 5.98854 5.74787 3.81634
-0.763875 2.73922 5.95641 6.99012 -2.32341 2.7798 -0.0819664 0.474063 4.67824 0.066364
4.54202 -1.53446 6.69571 5.19193 7.48715 1.56518 0.978651 -2.07419 -0.127397 3.63701
2.36864 4.62776 4.93353 8.36643 8.50498 6.3341 8.44778 8.44807 5.10579 -1.05103
4.68689 8.06561 -1.3664 1.44592 8.06144 3.08267 5.26011 0.36435 1.20844 4.60774
7.53366 -0.398576 3.06053 -1.82808 0.567575 6.47542 7.08656 -0.32469 7.40474 4.06582
1.82623 -0.569106 6.05476 6.75178 5.54215 2.68192 0.0894951 3.44819 1.53218 5.2054
0.180815 1.78904 2.49994 6.69043 -1.9292 -1.78961 -0.943235 -1.57292 3.96951 0.0163218
-1.95074 2.20571 4.57095 5.89435 -1.55441 3.21354 0.821398 -1.52668 5.30695 4.81716
4.36043 -0.129579 4.54819 5.57519 5.11972 -1.86221 0.940197 -1.24797 3.08031 5.42356
4.54063 5.95533 4.43263 0.527487 1.8401 4.65286 4.22352 -0.0926842 1.08278 -1.70293
0.897017 2.35622 5.0427 -1.25717 6.28692 -0.905353 6.29627 3.87553 -0.653322 6.29902
2.39192 6.07216 -0.221396 2.51038 -0.600529 6.34998 0.249404 1.85025 1.42866 5.73065
-1.51562 3.04017 5.26482 0.0219997 5.55012 4.80198 3.23459 5.60467 -0.257923 -0.560092
1.16009 4.23466 1.26026 4.24604 5.23467 3.38071 0.749444 -0.935206 1.70643 5.40037
-1.3152 4.20738 -1.52552 -1.42093 0.0963412 0.584311 2.49819 4.66406 -1.55346 0.541218
4.65607 -0.23513 -1.25165 -1.21731 3.90023 3.63443 -0.345264 3.25472 0.933585 4.00162
3.65829 -1.50924 0.682159 -1.03335 3.5289 4.69569 2.08004 -0.139844 -0.646918 1.81787
3.22923 2.30492 -1.09197 4.0769 1.2732 -1.4111 1.79231 -0.656426 1.91405 -0.643306
-0.78679 1.18543 2.67413 2.90176 -0.142321 4.82305 4.75981 4.69767 0.0520429 4.70515
4.57235 4.42105 0.742668 4.50134 -1.28114 4.48003 2.46739 0.732927 -0.532928 3.50817
0.24871 2.89828 -0.86241 -0.136945 4.15139 0.596746 1.433 1.56566 -1.13506 0.285479
3.79127 -0.434011 1.73632 1.99274 0.849826 1.31168 -1.23607 3.762 -1.15572 -0.288584
2.09562 -1.26514 -1.03042 -0.990574 2.97964 2.96921 2.94325 2.91589 0.87103 4.12009
-1.24443 2.6341 -0.870374 3.54111 -0.653627 -0.974381 2.35533 2.38944 3.34832 1.04307
1.60361 -1.18217 3.85379 -0.0673723 -0.688712 0.46243 2.2243 0.0173558 0.323687 3.52374
3.82516 3.73946 -0.579233 3.74954 -0.260699 1.20665 -1.09058 0.575586 3.34138 2.50231
3.59262 2.93566 1.952 -0.498663 1.30249 -0.805749 0.728724 3.39732 1.63149 1.22774
3.36429 0.942699 -0.479324 3.20349 0.776615 0.120785 1.89755 -0.981482 1.63216 -0.312041
0.709953 0.588883 3.08978 -1.02406 -0.961245 2.54106 -1.05057 -0.866247 2.08071 -0.824687
2.33525 2.34187 -0.644758 0.109226 2.29916 -1.04098 2.068 3.13565 0.904551 -0.130056
-0.86059 0.343245 -0.745879 2.7915 1.33871 1.91574 0.272565 -0.138913 -0.999513 -0.337828
0.921517 1.86554 1.26398 0.538893 -0.608753 0.973334 1.78903 3.13322 1.51836 2.17531
3.1121 3.06639 -0.533802 -0.933483 0.673017 2.48643 -0.733627 2.94925 1.58297 -0.463656
-0.503115 1.02854 1.71559 0.690728 0.01358 2.7826 2.91143 3.01455 1.6046 -0.851615
0.389253 -0.0372937 0.160832 1.33787 -0.318843 2.18718 2.58207 1.8443 -0.224096 0.345674
-0.861947 -0.813102 -0.609837 2.99569 -0.883834 0.765198 -0.740273 0.974973 1.87789 1.20827
-0.700215 1.86537 1.86352 -0.760274 1.90566 -0.878671 1.66739 0.142052 0.723485 -0.38293
1.10385 -0.648121 2.3613 0.497247 1.40455 -0.181549 1.56595 0.702972 -0.498406 -0.849668
1.90317 0.474411 -0.542478 1.1219 2.72915 1.4547 2.62709 2.62706 1.55053 -0.497053
2.56744 -0.664261 2.69667 2.13089 -0.802004 0.603065 0.026994 0.852071 -0.483284 0.672206
2.47475 -0.429473 1.2886 -0.13593 0.193699 -0.057071 0.245996 2.52919 2.34761 -0.282921
-0.741485 0.342236 0.956491 0.747869 1.64043 1.0957 -0.314966 1.89988 1.14285 -0.56911
2.19561 0.53279 0.643586 -0.729333 -0.398129 -0.691522 0.453262 1.29403 -0.747193 2.42985
0.0516548 -0.67297 -0.63545 0.689304 1.4677 -0.598974 1.39933 0.911833 1.48524 -0.745269
1.32096 2.02708 -0.204107 -0.564094 0.326944 1.25644 1.67636 -0.0700197 0.0719059 -0.725895
1.40227 1.28406 -0.481442 -0.479654 -0.202228 2.58086 1.17298 0.213951 0.523953 -0.600008
1.84873 2.24732 2.25725 0.709485 -0.692459 2.19287 0.753033 0.924838 0.143698 -0.100787
-0.391893 -0.31313 1.04863 2.30992 2.11654 0.569735 0.331094 -0.43637 1.07345 2.56928
1.14067 1.46609 2.01592 -0.648386 0.387942 1.66727 0.90137 -0.526071 -0.299712 -0.398476
1.19061 0.543383 1.8967 0.409057 0.551257 -0.00740587 -0.0212237 2.2774 -0.61963 -0.138856
-0.588994 -0.596864 0.102587 0.219767 -0.635587 -0.54457 0.758747 1.13487 -0.208668 -0.512337
1.76431 -0.636985 1.18085 1.04381 1.03134 -0.241803 1.4894 0.222437 -0.488215 1.27272
1.16386 0.745831 0.812872 0.538526 0.591095 1.00186 -0.454563 2.25897 -0.625022 0.886973