# vtk DataFile Version 2.0
sampleSurface
ASCII
DATASET POLYDATA
POINTS 22238 float
-0.0759496 0 -0.016272 -0.0801798 0 -0.0125348 -0.0818345 0 -0.0180453 -0.086997 0
-0.0189531 -0.0886285 0 -0.0137738 -0.0986804 0 -0.0154177 -0.0990586 8.67362e-19 -0.019469
-0.0987498 0 -0.0229307 -0.10251 0 -0.0193177 0.156071 0 0.03163 0.160128
0 0.027637 0.160269 8.67362e-19 0.0319311 0.160168 0 0.0358162 0.164212 0
0.0315376 -0.167313 -1.30104e-18 -0.0372618 -0.171713 4.33681e-19 -0.0328801 -0.17313 -1.30104e-18 -0.03712
-0.17831 -8.67362e-19 -0.0419082 -0.179588 4.33681e-19 -0.0377659 -0.18062 0 -0.0334666 -0.181174
4.33681e-19 -0.0411754 -0.180797 -8.67362e-19 -0.0447601 -0.183563 0 -0.0416301 -0.184665 8.67362e-19
-0.0366363 0.192075 0 0.0404984 0.192558 0 0.0399856 0.192709 -1.19262e-18 0.0405236
0.19988 0 0.0378965 0.199059 0 0.0420645 -0.200181 1.30104e-18 -0.0427786 -0.203488
0 -0.0391938 0.205097 0 0.0384339 0.205183 0 0.0414944 -0.204607 0
-0.0486006 0.205299 0 0.0457362 -0.205716 4.33681e-19 -0.0441846 -0.180639 0 -0.114662
0.211387 0 0.0432967 0.211896 0 0.0408855 -0.211753 2.1684e-19 -0.0429131 -0.184831
0 -0.111914 -0.211543 -6.50521e-19 -0.0451321 -0.183709 0 -0.1177 -0.185634 0
-0.114779 -0.213654 0 -0.0449474 -0.213259 -6.50521e-19 -0.0478512 -0.194589 0 -0.101253
0.215313 -8.67362e-19 0.0429458 -0.189371 0 -0.112926 0.215541 0 0.0465626 -0.199087
0 -0.0957723 -0.201636 0 -0.0908613 0.216504 1.0842e-19 0.046707 -0.193912 0
-0.107042 -0.1888 0 -0.116909 -0.192238 0 -0.112256 -0.19768 0 -0.105624
-0.203189 0 -0.095115 -0.199986 -8.67362e-19 -0.101942 -0.202014 0 -0.101226 -0.205341
0 -0.0947909 0.225228 4.33681e-19 0.0435332 0.224462 0 0.0476253 0.224391 -1.0842e-18
0.0526514 -0.12155 0 -0.195909 -0.11766 4.33681e-19 -0.199464 0.226353 -8.67362e-19 0.0515387
0.226548 2.1684e-19 0.0548237 -0.113274 4.33681e-19 -0.204788 0.229357 0 0.0466058 0.228645
2.1684e-19 0.0522271 -0.124758 0 -0.198677 -0.121633 0 -0.20085 -0.109187 0
-0.208337 -0.119326 -2.1684e-19 -0.20395 -0.117114 0 -0.206574 -0.115222 0 -0.208465
-0.112622 4.33681e-19 -0.211747 -0.213946 -8.67362e-19 -0.124578 -0.217702 4.33681e-19 -0.120614 -0.213146
0 -0.131516 -0.217851 0 -0.124725 -0.215401 4.33681e-19 -0.130942 0.24627 4.33681e-19
0.0540565 -0.214975 0 -0.133555 -0.223636 -4.33681e-19 -0.119206 -0.222925 -4.33681e-19 -0.12208
0.251136 8.67362e-19 0.049653 0.250867 4.33681e-19 0.0543864 -0.226245 0 -0.121382 0.259398
8.67362e-19 0.0511341 0.258549 -4.33681e-19 0.0553658 -0.126923 8.67362e-19 -0.232222 -0.129471 -2.1684e-19
-0.231524 -0.128591 4.33681e-19 -0.234192 0.263448 0 0.0535891 -0.268864 0 -0.0103095
-0.273177 8.67362e-19 -0.0088316 -0.273607 0 -0.0125036 -0.27814 4.33681e-19 -0.006503 -0.279081
4.33681e-19 -0.00444967 -0.27912 0 0.000330643 -0.28357 -4.33681e-19 0.00148877 -0.283819 0
-0.00405313 -0.284517 -4.33681e-19 -0.000603923 -0.289483 -1.0842e-19 0.00573934 -0.2904 0 0.00184859
-0.290401 1.0842e-19 0.00178372 -0.290459 0 0.0018405 -0.29075 -1.0842e-19 0.00635915 -0.290781
0 0.00723505 -0.291706 8.67362e-19 0.00636432 -0.0387295 8.67362e-19 -0.337524 0.0844836 0
-0.329813 0.0845251 7.04731e-19 -0.329913 -0.328774 -3.25261e-19 -0.0893431 -0.329018 1.0842e-19 -0.0891829
-0.0275617 -4.33681e-19 -0.339779 -0.329198 1.6263e-19 -0.0890484 -0.0392238 1.73472e-18 -0.341289 0.217808
4.33681e-19 0.266462 -0.291133 0 -0.183769 0.0900713 -4.33681e-19 0.332411 0.270539 0
0.213121 0.333842 -2.1684e-19 -0.0851677 0.143385 8.67362e-19 -0.313314 0.313684 0 -0.142601
-0.195456 0 0.283837 -0.332302 -8.67362e-19 0.0917895 0.344789 0 0.00273856 -0.212433
0 -0.271686 -0.283179 -4.33681e-19 0.196925 0.242671 5.14996e-19 -0.24513 0.242815 0
-0.244997 -0.316079 -4.33681e-19 0.13819 0.344977 1.19262e-18 0.00250281 0.227026 4.33681e-19 0.259765
0.334346 0 -0.0850488 -0.325471 -4.33681e-19 0.114413 0.242842 0 -0.245111 -0.0433355
4.33681e-19 -0.342471 -0.00352352 4.33681e-19 -0.345185 0.263992 4.33681e-19 0.222544 -0.0271571 0
-0.344299 0.090384 0 0.333405 0.223246 -4.33681e-19 0.26361 0.105943 8.67362e-19 0.32885
0.152041 -4.33681e-19 0.310299 0.135241 4.33681e-19 0.318062 0.089116 1.0842e-19 0.334036 0.267757
8.67362e-19 0.218777 -0.29499 -8.67362e-19 -0.180459 0.214243 0 0.271465 0.160591 4.33681e-19
-0.306313 0.234473 0 -0.254271 0.275272 4.33681e-19 0.209452 -0.1724 0 0.299911
-0.191436 4.33681e-19 0.288157 0.330652 -4.33681e-19 -0.101854 -0.342257 0 -0.0507284 0.306677
0 -0.160282 -0.297861 -4.33681e-19 -0.176206 0.298222 0 -0.175681 -0.0444166 0
-0.343297 -0.176067 -2.1684e-19 -0.298038 0.244149 -1.35525e-20 -0.245448 -0.113509 4.33681e-19 0.327074
-0.278581 4.33681e-19 -0.205602 0.329489 4.33681e-19 0.106507 -0.153981 0 0.310247 0.300228
2.03288e-19 0.172893 0.0910959 0 0.334267 -0.309103 4.33681e-19 0.156535 -0.31939 0
0.134346 0.300185 -3.65918e-19 0.173065 0.300246 -2.71051e-20 0.172969 -0.174371 -4.33681e-19 -0.299435
-0.301099 -2.1684e-19 0.17157 0.255576 -4.33681e-19 -0.234136 0.290428 0 0.189196 0.143397
0 0.315568 -0.0903321 0 0.334719 0.246106 6.77626e-21 -0.244202 0.110996 -4.33681e-19
0.328472 0.246146 0 -0.244219 0.246185 -4.87891e-19 -0.24418 0.0910448 0 0.334599
0.101986 -8.67362e-19 0.33145 0.0914611 -1.0842e-19 0.334545 -0.313877 -8.67362e-19 0.147568 -0.267055
-8.67362e-19 0.221312 0.139682 0 -0.317481 -0.209154 -4.33681e-19 -0.276752 -0.150258 -2.1684e-19
0.312672 -0.0950638 4.33681e-19 0.333664 0.205712 -8.67362e-19 0.279399 -0.288064 0 0.193395
-0.318145 0 -0.138488 -0.277303 0 0.20859 0.192305 -4.33681e-19 -0.288852 -0.145749
4.33681e-19 0.314921 0.246295 6.77626e-21 -0.24446 0.283206 -2.1684e-19 0.200597 -0.20037 4.33681e-19
-0.28339 0.180613 0 0.296383 -0.280271 -4.33681e-19 0.204735 0.147977 -8.67362e-19 0.313984
-0.137429 8.67362e-19 -0.318751 -0.182698 4.33681e-19 0.295151 0.217981 0 0.270165 0.135151
8.67362e-19 -0.319751 0.16118 0 0.307468 -0.311599 0 0.153049 0.222509 -4.33681e-19
-0.26649 -0.29462 4.33681e-19 0.183687 -0.195105 0 0.287216 0.119203 0 0.326136
0.183992 0 -0.294486 0.301479 -2.1684e-19 0.172326 0.308312 0 0.159811 0.274187
1.73472e-18 0.213115 0.29577 0 -0.182004 0.267042 -4.33681e-19 -0.222026 0.28632 -4.33681e-19
0.196562 0.188457 4.33681e-19 -0.291765 -0.0239675 0 -0.346525 0.338671 -8.67362e-19 -0.0771956
0.274547 0 -0.212892 -0.126213 -2.1684e-19 -0.323685 0.213518 4.33681e-19 -0.274067 0.320379
8.67362e-19 -0.134399 0.125333 0 -0.324037 -0.110241 0 0.329488 0.318421 -4.33681e-19
-0.139076 0.20938 0 0.277307 0.28091 -4.33681e-19 0.20458 -0.14591 0 -0.315404
-0.174954 -2.71051e-19 -0.300306 0.109963 -8.67362e-19 0.329711 -0.186635 -4.33681e-19 0.293211 -0.274801
4.33681e-19 0.212827 -0.271126 -4.33681e-19 0.217562 0.325031 -4.33681e-19 -0.12331 -0.203416 4.33681e-19
0.281912 -0.286697 0 0.196645 -0.174985 0 -0.300414 -0.313706 -2.1684e-19 -0.149865
-0.0947423 4.33681e-19 0.334517 0.302174 2.1684e-19 0.172094 0.324287 2.1684e-19 -0.125579 -0.170577
2.1684e-19 0.303047 -0.191527 0 -0.29029 -0.172479 -8.67362e-19 0.302015 -0.220283 0
-0.269147 -0.344524 -4.33681e-19 -0.0478141 0.294546 0 0.185004 -0.175934 0 -0.300056
-0.302414 -8.67362e-19 0.17186 0.231764 4.33681e-19 -0.259383 -0.303015 0 0.170857 0.292631
-8.67362e-19 0.188125 -0.144051 6.50521e-19 -0.31667 -0.0381626 4.33681e-19 0.3458 0.226297 0
-0.26426 -0.212379 0 -0.275578 -0.347928 0 0.000630538 -0.246218 4.33681e-19 -0.245887
-0.204443 -4.33681e-19 -0.281585 -0.317947 -1.30104e-18 -0.141527 -0.283486 -4.33681e-19 0.201938 -0.199883
8.67362e-19 0.284946 -0.342859 -4.33681e-19 -0.059975 0.173028 2.74439e-19 0.302018 0.17303 8.47033e-22
0.302025 0.173021 0 0.30203 -0.129061 2.1684e-19 -0.323274 -0.316396 0 -0.145141
-0.318381 2.1684e-19 -0.140767 -0.179094 4.33681e-19 -0.298515 0.31928 0 0.138736 -0.292729
-4.33681e-19 0.188413 0.273061 -4.33681e-19 0.21597 0.220981 -4.33681e-19 0.26904 -0.175517 0
-0.30068 -0.175259 -2.60886e-19 0.300841 -0.175255 0 0.300852 -0.0996192 4.33681e-19 -0.333738
0.336988 -6.50521e-19 -0.0880153 -0.128341 4.33681e-19 -0.323862 0.325139 0 -0.125128 -0.136761
-3.25261e-19 0.320428 0.203656 0 -0.28269 -0.0881559 4.33681e-19 0.337078 -0.248354 -4.33681e-19
-0.244364 -0.145591 -6.50521e-19 -0.316562 -0.345253 -1.69407e-21 0.0470233 -0.345264 -1.69407e-21 0.047011
-0.345265 -1.2282e-18 0.0470229 -0.345263 0 0.0470433 -0.345268 -1.69407e-21 0.0470176 -0.105126
-4.33681e-19 -0.332247 -0.31971 -2.1684e-19 -0.13866 -0.348462 -4.33681e-19 0.00405013 0.323956 0
-0.128483 -0.277197 0 -0.211233 0.307563 8.67362e-19 0.163934 -0.216494 0 -0.273137
-0.334901 -1.30104e-18 0.0965158 -0.0372479 0 0.346537 -0.295909 1.73472e-18 -0.184175 -0.12064
2.1684e-19 -0.327007 0.260426 -8.67362e-19 -0.231686 -0.12693 2.1684e-19 -0.324642 -0.327896 -1.0842e-19
-0.118312 0.124398 0 -0.325637 0.0434384 -1.0842e-19 0.345912 0.265365 -4.33681e-19 -0.226107
-0.090571 0 0.336674 0.325943 2.1684e-19 -0.123753 -0.328417 0 -0.117048 -0.135918
1.0842e-19 0.321069 0.17685 -2.1684e-19 -0.300474 -0.118471 2.1684e-19 -0.327916 0.0427338 -1.0842e-19
0.346057 0.337015 0 -0.089467 -0.345014 -2.1684e-18 -0.0505396 0.283421 -4.33681e-19 -0.203131
-0.314491 2.1684e-19 -0.150616 0.348701 2.1684e-19 0.000927602 0.341291 0 0.0715246 0.316346
-1.0842e-19 0.14673 0.300162 -4.33681e-19 -0.17751 -0.336389 0 0.0919646 -0.0393961 2.1684e-19
0.346505 -0.317956 -4.33681e-19 0.143273 -0.153913 4.33681e-19 0.312946 0.10297 -4.33681e-19 -0.3332
-0.136551 0 0.320907 -0.0381103 1.0842e-18 0.346669 0.125346 -2.1684e-19 -0.325455 0.302028
0 -0.174402 0.0433648 -1.0842e-18 0.346063 0.282843 -4.33681e-19 0.204086 -0.293764 0
-0.188029 0.312335 0 0.155288 -0.278992 0 -0.209388 0.0778961 0 -0.340018
0.341809 0 0.0696207 0.31688 1.0842e-19 0.145852 -0.186081 -4.33681e-19 0.295085 -0.336204
-4.33681e-19 0.0931152 0.279249 -4.33681e-19 -0.209112 -0.328273 0 -0.118098 -0.302472 4.33681e-19
-0.173858 -0.0377533 1.0842e-19 0.346836 0.209819 0 -0.278741 0.175769 2.1684e-19 -0.301373
0.199389 -8.67362e-19 -0.286308 0.208816 -8.67362e-19 0.279509 -0.147635 -2.1684e-19 0.316123 -0.157422
[...]
POINT_DATA 22238
FIELD attributes 2
p 1 22238 float
15.0803 21.0951 19.3543 27.2561 24.9878 7.4132 7.81267 6.59773 -1.33336 -2.2501 2.42486
2.79246 6.66372 2.41 7.25573 12.8982 9.9629 -0.305001 -11.4555 -9.96222 -6.13009
-4.31916 -10.8051 -15.9988 -9.15484 -8.30562 -8.08764 -2.33348 -5.82809 12.5076 15.4743
6.5819 6.56016 12.4428 6.20333 14.2391 3.1532 15.0804 13.2735 -12.5402 5.54601
-11.5087 9.47905 6.1611 -14.2477 -15.8633 17.5045 13.2768 6.82782 15.495 10.8228
3.88935 15.5034 13.3267 4.1734 -6.14821 -8.26715 3.06387 1.05968 -4.76902 -5.2651
13.0505 14.4531 6.11019 22.9341 22.838 7.08949 7.85856 20.073 7.28444 8.16461
4.77684 17.9748 8.55014 1.29145 0.10813 11.4617 12.3386 31.0623 32.576 33.1363
33.8795 30.5982 -12.7359 31.0928 9.90822 11.0009 -6.37593 -5.02655 5.06332 8.47573
8.08706 18.8225 14.4233 16.1542 9.83759 23.8232 27.2714 25.117 25.9868 37.6881
31.428 38.4736 22.7176 29.6395 12.9064 -1.29647 -1.34973 -1.48694 7.01922 6.50709
3.48887 -2.93965 -18.6723 -18.3729 27.6797 30.278 17.3292 30.2952 -5.05296 -15.508
1.14128 -12.7055 -32.3084 -57.7312 -8.79079 -29.4021 -4.46474 6.55602 -25.651 -4.17184
13.5313 -10.6928 -10.525 11.9722 -25.0274 -8.09299 -52.7718 11.7132 -10.2754 -16.5959
-13.6299 -28.271 16.3472 -12.728 -19.1807 -8.5797 -12.2641 -16.5275 -14.4861 -23.5959
7.78797 -21.7242 -19.789 -18.3423 -31.2437 7.52953 5.46153 -29.8374 28.6148 -31.6172
5.9932 -26.6989 -11.7474 7.86966 -8.05584 2.62292 5.22152 -26.5383 -1.98821 -20.7497
11.5927 29.9946 16.8058 -21.038 -20.4346 12.0309 24.9282 -17.3602 -52.7777 -9.13093
3.16002 -9.2808 -9.69127 -9.1843 -9.26987 11.6221 5.78786 11.2558 39.3759 10.7215
-15.6614 8.15902 11.7682 -9.23846 -20.2106 22.3343 41.3722 30.8378 -12.0086 16.3474
-8.43763 -31.6383 12.7896 -14.8029 38.9118 -16.6327 15.3302 9.82617 -12.1599 -9.67319
-7.76278 37.3045 -24.3268 30.3285 2.0864 -6.27073 -16.3939 -19.9205 -18.1278 -19.2776
-23.9178 -22.0163 -40.3534 -18.3143 10.3652 -70.7846 -13.9944 3.26502 -18.1876 -27.8884
-23.9828 6.03288 -29.4546 -19.22 -25.408 5.44267 16.5618 -10.2678 10.1384 31.0819
24.1247 -27.9054 2.08037 21.6035 16.7757 52.234 -7.42283 -17.6941 -31.781 11.2542
6.25893 12.5216 2.64366 38.3492 -46.0487 12.1165 31.9732 -21.8669 31.8925 -34.726
6.98258 3.26761 -22.0056 3.55104 31.0113 24.7006 13.6608 42.3313 40.5283 3.79759
37.7891 -9.63193 -9.62754 -9.62587 5.5214 58.3867 45.0119 10.8986 -18.243 27.488
-23.8217 -6.23344 16.4398 9.26407 9.28315 1.47024 -40.6313 4.86244 -28.8069 7.97841
-29.1152 3.63098 21.0344 7.78206 61.5933 61.6405 61.6858 61.7177 61.7144 -3.63205
44.7818 37.4951 -29.8012 12.6974 -24.8872 6.39652 26.1228 4.00527 19.9376 7.63088
-19.3226 4.65394 46.468 -24.5365 -10.0077 -23.2922 3.70539 -22.6345 49.589 6.14041
-24.9965 8.71067 -10.2907 -36.1901 42.9583 -31.8718 63.6051 -29.1965 -31.4941 -29.4647
-25.1915 22.0756 0.797377 41.4768 1.30145 -16.6281 7.48958 3.39919 -23.0154 -25.8895
-9.89428 -15.6764 31.3431 -12.39 14.8084 -59.6606 -27.3403 -29.1513 9.62919 26.3064
-11.1739 49.3687 10.3366 4.49434 -18.6094 -25.2835 -31.0218 -14.0416 11.8275 2.12742
7.16129 26.9247 45.6727 -15.9712 20.1426 -16.52 -24.9867 -25.3017 24.9401 -20.4684
-10.5844 -21.6378 -27.5133 14.9733 40.6306 0.881009 48.2954 -36.2149 12.773 -21.8506
27.3947 22.4025 -10.3805 -28.4187 40.4441 -12.9133 -21.8992 44.6785 -17.6833 53.0753
11.6045 25.7831 -0.196451 -6.90347 45.407 41.1435 64.9061 15.3153 24.9426 -29.8966
39.9152 -14.3379 -45.3649 5.49747 46.2218 -19.3899 -26.4579 -23.5566 39.5622 -21.3227
18.4908 -13.0365 -29.3555 43.6406 5.31798 38.4711 30.8341 32.0892 32.0087 34.6071
-23.0876 -10.9848 -10.5493 10.4349 2.26014 7.99942 -13.7137 9.23007 -4.73008 49.885
49.545 34.7804 46.8816 -21.0438 -18.2842 0.465974 -0.29723 -13.3772 -11.5733 -27.4643
20.116 -13.0682 -17.2638 -46.0854 -21.5474 -35.0127 46.8189 -30.0786 -26.5406 -26.6868
2.88843 -30.4878 -14.7286 -13.7209 -4.14594 -6.94762 -35.3665 10.9819 45.5967 -4.58884
37.4865 -32.3935 28.4933 -19.6113 46.4275 10.9801 -22.7873 18.3829 -12.1512 4.81763
-6.90518 -9.61951 14.1456 -49.7187 28.6276 54.25 -10.2621 -22.6779 25.2934 -29.5746
-41.4921 23.9618 -1.8526 18.6251 -29.0922 -23.557 -13.3631 46.9576 -22.5781 -16.4554
-31.3469 -6.01307 -54.2674 27.4255 -31.9476 4.47218 -24.5527 4.92586 -11.4513 24.1869
51.1253 20.5845 -33.7332 -7.35914 -21.1198 17.769 18.9289 -0.353045 -59.6232 -22.9235
24.2609 -1.87917 22.9081 -21.1098 31.2265 30.1905 -34.0876 29.5004 -31.2321 -9.32767
-40.729 -33.3183 -8.74468 47.3703 -33.6913 -25.7519 10.9399 41.6356 -18.9793 19.1791
-27.337 -18.7175 18.7216 -35.0986 13.5751 -6.78869 -24.6665 -22.1327 23.0046 36.4538
-39.5466 16.2109 6.16305 -5.61348 -42.8002 41.3358 -31.9916 -40.6039 36.2399 19.9835
-12.0883 33.8201 -11.9745 38.7013 -8.50992 -11.8862 -23.0567 -32.6835 -26.0054 -21.0556
-26.8127 -31.4033 30.4534 39.6944 -20.9024 -33.1019 13.4073 -34.4301 -28.1269 29.3277
-11.4941 -29.567 -13.1363 13.9928 -25.088 7.394 -9.22725 -10.9728 -12.5724 41.3907
-24.2688 -15.1448 29.9991 -37.5507 -2.32681 -18.1439 42.9432 27.8994 35.6306 11.8067
38.0727 -21.8308 -12.6449 -23.7219 -22.8759 39.1964 -18.7617 23.9325 -32.5682 9.81785
-41.0932 -16.5662 42.7533 -25.6084 -0.945223 -9.79937 -36.3494 75.4642 -7.72169 -9.68475
-30.6056 -16.5772 -16.327 54.8704 66.2674 -24.3297 68.2988 -25.6596 39.8408 -8.99964
4.43833 -19.0535 37.7049 -7.22283 11.0296 40.3952 9.57993 0.0574575 -30.06 -45.1897
77.2741 -7.54724 15.0588 -11.1698 41.329 -22.1058 -32.5724 -37.4904 60.4479 77.2476
-42.4989 -12.5845 79.2036 59.7089 -2.73188 79.9875 80.2431 -15.2171 -15.4212 -9.3871
71.7278 -0.866841 -11.1509 80.1698 -11.1548 -11.509 -24.8546 -2.03709 -19.9506 -2.07968
4.79769 -15.494 -21.4017 35.4507 -11.2516 73.811 -37.3358 -23.0262 -15.1183 -12.0349
68.3411 -2.02223 67.8068 -22.9834 25.6003 45.9023 -54.0626 67.5229 -7.13234 40.3773
-21.5993 -14.3836 -15.2661 -21.3558 -12.5245 -35.3871 71.48 -22.8797 3.68293 -34.0495
45.1979 4.01432 -13.1772 -14.8707 -17.9727 -43.1261 -17.2983 6.25407 -15.2201 4.3738
-20.2069 -8.24276 -34.5162 -15.5709 -8.7717 -3.94096 -15.4842 -39.8967 63.8065 -22.5985
63.7551 8.51365 3.15949 -8.36764 22.7312 31.7911 7.29872 72.7294 17.8914 -9.30842
17.6493 -25.5023 21.8278 -19.7249 -0.794569 26.6144 -1.86978 27.0615 -32.949 43.3418
-15.9822 -16.2823 -22.9681 -0.329413 -20.8546 -8.79729 -14.5352 -29.5974 10.2899 18.9565
25.3407 -6.96901 -0.327075 15.3808 7.6488 73.2595 7.9857 -24.0523 -25.5004 41.6176
-23.3811 -7.65949 4.48735 -26.5118 3.79407 56.2708 -34.9792 3.93701 11.8315 -2.89003
8.58572 7.46069 -10.9899 26.9634 10.9228 -18.4872 66.6192 -4.69062 -13.6927 -23.2519
-17.0635 -5.88865 -15.2487 -20.2844 -11.118 17.3505 45.6763 -11.8106 -17.2756 40.923
-18.1416 47.2649 -17.1514 76.7839 0.520564 45.6529 -20.2267 39.3366 41.2891 13.6181
-20.5047 -11.4867 -12.1065 -4.89472 -9.75713 -22.1052 14.013 39.8019 39.0792 -20.7446
50.3197 -1.62814 43.5541 1.75716 29.3804 -16.0235 -8.0755 -22.6802 50.5632 44.7846
64.2105 -2.03084 -6.50675 -27.5492 -7.5819 34.7045 -21.4956 -25.5386 -17.507 28.47
-15.975 53.844 -8.29892 -16.5897 51.5888 -16.1857 -24.1492 -34.0693 -1.55087 -22.1326
-13.037 1.28701 48.4075 34.2931 -11.6325 -32.9679 -10.5973 59.9586 -7.46573 6.31387
-4.2855 -14.5363 -5.86417 -4.25376 -6.18504 42.7445 43.5302 -10.7369 11.4815 22.0976
-6.43481 -14.5336 -34.7899 37.0146 -5.90816 31.1194 0.165244 14.3262 7.61696 31.2985
32.8261 30.4132 1.73723 27.7474 -8.69641 8.52607 41.7365 -14.9457 -4.35904 -13.1794
-6.31486 5.0486 14.5608 0.894051 39.2411 -7.56459 -6.4215 31.1458 -13.8625 5.28031
13.6478 -12.6852 65.5755 -9.5064 -8.40416 2.25425 -19.2585 -18.6659 2.6446 -17.3357
-11.0408 -26.6473 -21.327 -24.4545 13.3236 11.8199 39.1944 -13.6137 -11.4724 -21.7773
-18.6837 -19.6589 -20.6633 1.51784 -19.0497 -26.2284 2.8102 -6.25726 8.39407 -18.7707
5.32056 -24.2759 12.9925 -10.5939 -21.5287 1.78574 54.9746 -15.5218 31.7271 -4.43536
5.88949 -5.15417 -18.6667 -9.67199 5.97559 47.1221 5.38404 -9.05836 7.55266 -13.1889
40.9527 7.08735 -15.6502 -5.92759 46.1312 48.7638 6.14783 -1.42868 36.7445 -1.36465
11.0253 5.30913 -8.74585 23.5834 9.41843 -3.79093 13.1417 6.10965 40.0972 -1.71406
6.6104 7.89188 -3.35051 0.848088 6.83992 10.8638 1.6373 -4.40536 13.7448 8.01427
30.7786 36.7664 7.72823 15.5519 15.7628 -2.19986 3.81957 -9.4899 -1.06448 24.2719
-1.694 36.4201 -15.8423 42.2797 -7.12599 13.7429 -0.121666 -13.193 13.866 -7.0363
35.0341 13.0432 8.14301 -4.67163 3.98617 8.20679 9.832 -2.22306 15.5652 7.22207
-6.94858 9.11666 11.6227 7.17424 12.6956 16.2682 -3.69295 38.5854 4.16105 -3.38024
3.50688 24.1459 13.5277 11.777 1.30821 8.84814 11.7595 5.90712 9.15756 30.9032
2.15346 9.85457 9.83075 13.0681 8.50957 9.5497 8.03896 6.27454 11.6032 5.32748
47.7148 5.383 31.6027 12.5553 13.2528 9.33587 -4.3774 -4.33757 40.7221 9.87245
-6.46016 9.95971 11.6725 21.4921 -4.37305 11.74 27.7266 5.68246 -3.98824 10.2029
47.5254 -6.53817 20.9794 24.4461 33.4239 3.17766 14.7315 18.5729 -9.31321 20.7804
-6.25826 11.7002 11.4042 15.3159 5.35222 8.90366 2.28072 9.79301 49.8928 5.344
-4.06707 8.31812 33.898 34.2621 10.6384 39.6791 13.6313 2.15388 -6.04425 -4.37564
47.8319 -0.862549 10.5212 3.31403 -2.18339 18.9728 -2.08153 19.2644 -2.01645 -6.3717
5.96045 2.64306 42.6736 16.6351 2.52416 2.89863 3.06141 39.7744 39.7731 34.2877
3.44188 0.307454 4.44304 14.7925 46.4652 -3.51985 44.5512 -7.78405 32.627 47.6407
-3.53333 -7.6604 6.85242 -7.26838 -8.27456 -2.3353 -7.18754 -3.85071 18.479 -2.31938
41.5756 -4.89716 47.6629 14.0521 -5.98203 -3.70406 14.2483 7.64588 0.343357 29.6142
-6.73073 -2.39761 42.1198 -2.29101 4.63053 -5.02332 29.7234 13.6313 19.5895 41.39
3.18504 5.62782 33.9568 14.0592 6.75979 17.0013 4.24951 -0.214579 1.02276 7.36644
39.7849 11.5865 -4.00856 25.7673 23.1737 -0.347204 24.5015 -4.87206 13.4706 -7.09107
3.27973 19.6572 16.3452 38.2973 -3.8043 16.5319 37.033 -5.75633 17.1031 -8.29634
17.1249 29.7623 -0.284627 17.8029 -1.49963 0.906005 10.6945 6.80417 21.3879 6.18357
0.345892 -4.6219 4.17553 9.84806 9.88738 28.926 14.5354 7.95387 9.71588 10.1405
9.64473 5.36443 23.3831 5.78907 35.1715 11.7125 0.292061 5.2533 -3.95401 -5.96731
-4.28666 -2.4297 6.76697 -5.53031 5.60336 6.90424 9.03216 5.28234 -2.80272 29.8443
2.91354 4.50597 -1.31068 -2.00929 4.41118 7.95208 35.7636 8.93891 10.4597 4.25564
9.06701 -0.966551 6.45478 -4.49264 25.7361 -2.28579 36.1742 5.60622 2.91725 -2.37907
38.4217 23.6131 10.2688 -3.1988 28.0458 10.8898 -0.177915 1.82591 -3.91369 6.21422
-4.62826 13.1578 3.78072 15.5036 21.5424 1.0457 -6.23236 6.96844 7.54355 7.29942
21.291 -0.0448448 -4.48029 -1.77866 28.9706 -1.80406 6.44661 -12.9998 7.18233 -4.13182
8.3841 -4.52045 12.8759 8.4205 31.0919 9.73351 10.4998 9.69831 24.5874 10.0519
-4.93278 -1.0839 29.815 -6.6688 -0.202448 24.1444 10.7101 -4.70169 8.21863 24.116
29.3597 0.673475 6.60576 35.3442 36.7877 34.5197 10.3796 7.80623 2.73146 -0.879452
24.6162 36.8247 10.8531 19.5418 37.5388 33.3759 -6.01008 -4.41437 -6.18863 -6.4691
4.19311 34.5027 -3.8736 28.0227 -5.76377 37.9391 -5.8428 -6.18726 27.9189 4.86259
2.30174 -13.1282 21.2026 -4.74568 2.57541 -5.7643 32.0285 -4.22498 2.64315 30.8893
13.8781 11.6615 -3.945 0.773479 -5.96445 3.5678 15.429 3.74525 22.1025 1.96144
2.1384 0.609969 20.4499 -4.6863 30.0585 2.06716 14.5246 5.36069 -2.44879 7.69084
3.78642 1.34953 8.98722 -3.97644 6.37289 5.52517 18.5917 12.5678 9.2728 -5.36069
3.00424 21.9815 -0.56098 -2.85563 1.68263 26.3615 -5.39286 4.67777 22.4724 15.2064
-1.65753 28.084 -4.02987 1.63262 9.00079 1.53739 5.41684 -3.89234 -1.0341 -5.2347
6.4398 2.69255 9.63523 22.0877 25.8817 1.31655 -4.99719 -11.2161 6.18571 -1.85984
6.29955 15.512 4.54957 6.9324 -2.28729 18.6557 -3.79167 3.33142 -5.07333 1.12849
17.74 4.16322 -4.82749 3.53958 3.36656 2.80096 -3.76118 3.31109 27.2397 -11.1968
18.9523 25.1436 1.534 16.8541 2.39304 3.60511 24.1238 3.51672 5.94623 -4.39724
-5.38808 18.7381 5.70852 4.7678 2.14132 5.0941 0.947001 7.37677 6.23018 -3.01085
8.32607 -2.27502 7.95924 2.49846 6.33844 4.66442 4.4876 -0.920398 20.4707 26.0919
0.81643 -4.80571 0.478323 18.832 2.78503 2.78916 24.2352 4.14551 4.13972 8.51099
4.45034 5.96666 10.1498 16.0138 23.1758 -4.28161 -0.00656749 -6.98031 20.0518 23.2428
2.40284 -4.29533 -1.77727 -2.2192 16.1436 -4.72972 -1.57841 8.27275 3.49849 -3.92188
15.2528 5.2236 8.46029 -3.57646 6.01425 -1.35163 3.28108 2.79182 -7.12939 11.2248
12.2137 9.41553 3.59204 4.85047 20.0351 4.22844 11.3297 4.04581 11.902 19.8227
-1.12058 16.2608 7.25712 9.38304 12.7092 -5.28855 14.7281 6.19702 0.533298 -3.31217
3.80777 2.71857 5.53182 23.393 23.0164 0.161262 4.68317 0.734489 2.59987 0.734836
15.7684 17.9065 23.4036 -3.31127 23.018 3.26922 23.0013 12.8891 -4.29064 -4.53969
1.46846 14.2734 -3.82107 7.81683 21.3856 -4.48359 21.7915 -1.69414 -3.10532 -0.246072
5.13646 0.476074 17.6487 12.8197 14.9068 -3.48024 -4.35488 3.87678 1.95068 -5.46408
1.00544 -4.19728 3.90741 0.474825 3.15941 -0.747164 1.05351 19.5377 3.73442 18.0974
20.7074 3.21187 13.3407 0.411604 -1.5836 5.98521 -3.03798 -0.68111 -3.452 -1.04038
-3.83443 1.11621 2.69796 -4.76275 2.04042 2.40062 -2.78944 13.6878 1.20098 2.30353
2.3089 2.32202 19.2587 15.6356 2.55406 18.1628 -3.32138 1.84103 2.53625 1.2468
3.14673 13.7357 4.31767 15.378 12.6185 3.3835 3.87728 -2.38874 5.04006 2.36691
2.42036 5.57338 -1.89936 14.7371 8.4368 9.58284 -3.51202 13.3062 3.09272 -2.52342
-0.398468 1.9918 14.9176 18.2784 3.43692 16.1058 6.8968 10.2253 18.154 5.71831
9.05349 2.50609 8.10579 -4.92632 2.46872 17.008 -1.36074 -3.38906 -1.82949 4.38983
-0.0440253 2.96578 -3.0769 9.84205 1.06764 11.7824 0.102333 -0.0173716 6.71924 2.04319
4.42089 -3.03293 5.19862 10.5572 -0.00222371 1.14975 0.447662 2.09854 3.55712 -4.51334
11.9797 -2.94236 15.5447 5.62227 10.6216 1.77163 1.64359 16.2367 2.25584 0.552443
-1.33716 0.587372 12.6718 4.35637 0.0851799 -0.780965 13.9525 -0.543477 1.44621 18.0496
17.8623 1.5325 4.64388 -2.65401 10.5438 3.6117 0.416694 -2.02836 17.867 17.483
11.4599 17.6112 -2.74637 -3.67001 -3.62126 -1.01556 -4.62589 10.9562 -3.2214 16.1886
16.8132 -3.79689 14.0373 0.590535 4.56449 -1.0309 15.4352 -1.1179 -3.08541 2.28204
14.3034 -3.48514 7.21755 -0.21439 15.5889 1.27042 6.22908 8.07278 -1.83372 1.60436
1.53647 0.60535 -2.50212 -2.6483 11.5293 7.06328 10.0793 -3.53286 0.614671 -2.55788
2.21722 -3.32326 4.75211 2.99471 8.55754 3.16706 0.630294 14.5435 2.35854 1.8358
3.93386 3.94074 11.0995 4.53223 5.33473 0.0499905 11.2832 0.523349 -2.26573 9.72709
-2.16795 2.46212 8.37457 4.0472 -1.63868 -2.99284 13.0812 -0.36808 8.68471 3.59752
2.92501 2.11899 -3.55015 4.31644 13.3647 0.651611 13.6965 -2.33941 -0.419994 -1.83824
-0.637314 0.606999 9.54803 4.30165 0.962844 0.730111 9.38615 3.85211 2.25015 -2.78885
-0.727436 0.89252 -0.311268 11.8621 1.87925 9.22256 8.75652 2.25549 13.0013 -1.5275
10.7757 8.87023 -1.76017 4.88025 8.96507 4.29008 3.01264 -2.50617 8.47815 13.5656
14.3916 6.20986 -1.16327 13.5664 13.8842 13.5961 12.4083 13.6312 1.22384 3.32576
1.44194 -1.211 11.2859 3.02198 4.6279 8.64598 -1.54496 1.30773 12.2658 1.30815
-2.38195 -0.262311 0.736999 -0.295217 10.9858 -1.42127 6.776 12.0085 -1.57569 2.78676
3.05404 -2.17302 1.66008 -1.94278 -0.783502 10.6926 10.3875 5.08592 -1.50864 3.6692
8.21403 1.31048 -0.155397 9.25819 5.91301 -0.537168 0.735235 4.35011 10.276 -1.10764
-0.0822124 1.70383 6.63663 -2.49212 6.53501 4.35639 -2.30869 8.93151 1.90167 2.58148
-2.48929 -1.97341 -1.79554 -1.93958 7.58201 3.8661 6.39218 5.97273 5.73494 3.81712
-0.763764 2.73902 5.9261 6.99032 -2.32351 2.78001 -0.081633 0.474285 4.67806 0.0661741
4.53141 -1.53462 6.69592 5.17521 7.48729 1.56499 0.978701 -2.07425 -0.127079 3.63229
2.3676 4.6281 4.93384 8.36644 8.505 6.33398 8.44781 8.4481 5.10564 -1.05119
4.68245 8.06558 -1.36635 1.44559 8.06149 3.0831 5.26038 0.364547 1.20861 4.60808
7.53361 -0.398426 3.05763 -1.8281 0.5674 6.47559 7.0865 -0.324532 7.40482 4.06291
1.82634 -0.569265 6.05495 6.75171 5.54238 2.68174 0.0897571 3.44803 1.53153 5.20528
0.180926 1.78888 2.49867 6.69053 -1.92929 -1.78972 -0.943132 -1.5729 3.96937 0.0166114
-1.95082 2.20573 4.57126 5.89427 -1.55453 3.21261 0.821317 -1.5268 5.29806 4.80712
4.34933 -0.12973 4.54848 5.57537 5.10889 -1.86226 0.940039 -1.24809 3.07076 5.42374
4.54094 5.95546 4.42862 0.527698 1.83946 4.65311 4.2234 -0.092507 1.08293 -1.70296
0.896724 2.35262 5.04261 -1.25711 6.28692 -0.905479 6.29628 3.87482 -0.653187 6.29904
2.39154 6.07214 -0.221228 2.51024 -0.600388 6.35003 0.249263 1.85011 1.4287 5.73062
-1.51563 3.04004 5.26496 0.0220501 5.55008 4.80218 3.23148 5.60474 -0.257727 -0.560216
1.15995 4.23495 1.25982 4.24594 5.23462 3.38059 0.74934 -0.935116 1.70613 5.40046
-1.31517 4.20767 -1.52558 -1.42101 0.0965288 0.584493 2.49642 4.664 -1.5535 0.541091
4.65623 -0.235248 -1.25174 -1.2174 3.9026 3.63443 -0.34512 3.25137 0.933664 4.00183
3.66187 -1.50927 0.68196 -1.03345 3.52881 4.6958 2.07289 -0.139783 -0.646794 1.81775
3.23583 2.3048 -1.09191 4.07683 1.27308 -1.41111 1.79038 -0.656305 1.91301 -0.643186
-0.786884 1.18527 2.67402 2.90485 -0.142274 4.82306 4.75983 4.69769 0.0519317 4.70514
4.57232 4.42118 0.742554 4.50132 -1.28112 4.48001 2.46547 0.732828 -0.533021 3.5081
0.248872 2.89819 -0.862337 -0.136798 4.15136 0.596841 1.43235 1.56546 -1.13502 0.285377
3.7914 -0.433886 1.73622 1.9916 0.849757 1.31157 -1.23611 3.76195 -1.15577 -0.288676
2.09552 -1.26516 -1.03048 -0.990634 2.97957 2.9763 2.94995 2.9222 0.87093 4.1201
-1.24444 2.64059 -0.870438 3.54132 -0.653538 -0.97431 2.35525 2.39665 3.34827 1.04267
1.60268 -1.18216 3.85379 -0.0674591 -0.68878 0.462338 2.22632 0.0174946 0.323786 3.52395
3.82517 3.73948 -0.579138 3.74954 -0.26057 1.20634 -1.09054 0.575595 3.34152 2.50224
3.59261 2.93561 1.95055 -0.498732 1.3024 -0.805663 0.72867 3.39737 1.63141 1.227
3.36427 0.942611 -0.479222 3.20364 0.776373 0.120704 1.89748 -0.981424 1.6321 -0.31211
0.709896 0.5888 3.08975 -1.02407 -0.961273 2.541 -1.05058 -0.866285 2.08064 -0.824727
2.33919 2.34562 -0.644667 0.109334 2.30409 -1.04097 2.06827 3.13573 0.904006 -0.129925
-0.860513 0.343297 -0.745923 2.79147 1.33826 1.9159 0.272491 -0.13898 -0.999485 -0.337719
0.92133 1.86635 1.26391 0.538811 -0.608802 0.973258 1.78661 3.13323 1.51829 2.17525
3.11212 3.06639 -0.533704 -0.933439 0.672944 2.48639 -0.733538 2.94925 1.58099 -0.463708
-0.503014 1.02792 1.71552 0.690366 0.0135162 2.78259 2.91153 3.01471 1.60521 -0.851557
0.389186 -0.037178 0.160906 1.33832 -0.318895 2.18713 2.58205 1.84425 -0.223983 0.345675
-0.861949 -0.813115 -0.609741 2.99584 -0.883825 0.764656 -0.740296 0.974907 1.87678 1.20821
-0.700241 1.86414 1.86223 -0.760202 1.90901 -0.878651 1.66047 0.141992 0.723421 -0.382823
1.10356 -0.64815 2.36127 0.497093 1.40449 -0.1816 1.55897 0.702843 -0.498303 -0.849636
1.90313 0.474349 -0.542512 1.12179 2.72927 1.44851 2.6271 2.62708 1.55048 -0.49695
2.56744 -0.66418 2.69679 2.13086 -0.801962 0.60269 0.0270843 0.851519 -0.48318 0.672085
2.47475 -0.42951 1.28596 -0.135823 0.193736 -0.0571211 0.245941 2.52923 2.34761 -0.282815
-0.741432 0.342189 0.956435 0.747812 1.64038 1.09592 -0.315005 1.89985 1.14279 -0.569022
2.19559 0.532735 0.643113 -0.729328 -0.398023 -0.691525 0.453083 1.29398 -0.74718 2.42991
0.0516071 -0.672906 -0.635461 0.689319 1.46425 -0.598989 1.39311 0.911192 1.48709 -0.745248
1.31157 2.02706 -0.204146 -0.564112 0.326893 1.24725 1.67633 -0.0699286 0.0719656 -0.725864
1.40222 1.28654 -0.481464 -0.479561 -0.202124 2.58098 1.16618 0.213948 0.523627 -0.599937
1.8487 2.24734 2.25727 0.708821 -0.692419 2.19288 0.752984 0.92479 0.143654 -0.100825
-0.391919 -0.313026 1.0461 2.31 2.11654 0.569687 0.33101 -0.436276 1.0734 2.5694
1.14171 1.46606 2.01592 -0.648337 0.387896 1.66725 0.901028 -0.525994 -0.299739 -0.398381
1.19057 0.542935 1.89669 0.408882 0.55127 -0.00744251 -0.0211524 2.27749 -0.619621 -0.138761
-0.588992 -0.596807 0.102615 0.219725 -0.635571 -0.544574 0.757529 1.13169 -0.208696 -0.512344
1.7643 -0.636963 1.18175 1.03701 1.02405 -0.241702 1.48937 0.222398 -0.488224 1.27268
1.16474 0.745789 0.81285 0.53854 0.591053 0.995074 -0.454482 2.25906 -0.624992 0.886932
0.45504 -0.42258 -0.540691 0.432902 0.941516 -0.326458 1.6234 0.074892 0.593396 0.313538